LAMMPS (2 Aug 2023 - Update 3)
OMP_NUM_THREADS environment is not set. Defaulting to 1 thread. (src/src/comm.cpp:98)
  using 1 OpenMP thread(s) per MPI task
units metal
atom_style atomic
atom_modify map array sort 0 0
boundary p p p
box tilt large

The 'box' command has been removed and will be ignored

region cell prism    0 2.7098479949489858 0 13.269196442895701 0 11.045535376590912     0.06277160438719642 -2.3234191722562696 -1.8155943156732728     units box
create_box 2 cell
Created triclinic box = (0 0 0) to (2.709848 13.269196 11.045535) with tilt (0.062771604 -2.3234192 -1.8155943)
  1 by 1 by 1 MPI processor grid
echo none
Created 18 atoms
  using lattice units in triclinic box = (0 0 0) to (2.709848 13.269196 11.045535) with tilt (0.062771604 -2.3234192 -1.8155943)
  create_atoms CPU = 0.007 seconds
Setting atom values ...
  1 settings made for type
Setting atom values ...
  1 settings made for type
Setting atom values ...
  1 settings made for type
Setting atom values ...
  1 settings made for type
Setting atom values ...
  1 settings made for type
Setting atom values ...
  1 settings made for type
Setting atom values ...
  1 settings made for type
Setting atom values ...
  1 settings made for type
Setting atom values ...
  1 settings made for type
Setting atom values ...
  1 settings made for type
Setting atom values ...
  1 settings made for type
Setting atom values ...
  1 settings made for type
Setting atom values ...
  1 settings made for type
Setting atom values ...
  1 settings made for type
Setting atom values ...
  1 settings made for type
Setting atom values ...
  1 settings made for type
Setting atom values ...
  1 settings made for type
Setting atom values ...
  1 settings made for type
pair_style airebo 3.0 1 1
pair_coeff * * CH.airebo C H
Reading airebo potential file CH.airebo with DATE: 2011-10-25
mass 1 12.010999996910237896940998325590
mass 2 1.007999999740697649741605346208
variable pxx equal pxx
variable pyy equal pyy
variable pzz equal pzz
variable pxy equal pxy
variable pxz equal pxz
variable pyz equal pyz
thermo_style custom pe pxx emol ecoul
variable fx atom fx
variable fy atom fy
variable fz atom fz
variable pe equal pe
neigh_modify delay 0 every 1 check yes
echo none
run 0
WARNING: No fixes with time integration, atoms won't move (src/src/verlet.cpp:60)
Neighbor list info ...
  update: every = 1 steps, delay = 0 steps, check = yes
  max neighbors/atom: 2000, page size: 100000
  master list distance cutoff = 12.2
  ghost atom cutoff = 12.2
  binsize = 6.1, bins = 1 3 2
  1 neighbor lists, perpetual/occasional/extra = 1 0 0
  (1) pair airebo, perpetual
      attributes: full, newton on, ghost
      pair build: full/bin/ghost
      stencil: full/ghost/bin/3d
      bin: standard
Per MPI rank memory allocation (min/avg/max) = 3.865 | 3.865 | 3.865 Mbytes
    PotEng          Pxx           E_mol          E_coul    
-72.677409     -67668.36       0              0            
Loop time of 1.342e-06 on 1 procs for 0 steps with 18 atoms

1266.8% CPU use with 1 MPI tasks x 1 OpenMP threads

MPI task timing breakdown:
Section |  min time  |  avg time  |  max time  |%varavg| %total
---------------------------------------------------------------
Pair    | 0          | 0          | 0          |   0.0 |  0.00
Neigh   | 0          | 0          | 0          |   0.0 |  0.00
Comm    | 0          | 0          | 0          |   0.0 |  0.00
Output  | 0          | 0          | 0          |   0.0 |  0.00
Modify  | 0          | 0          | 0          |   0.0 |  0.00
Other   |            | 1.342e-06  |            |       |100.00

Nlocal:             18 ave          18 max          18 min
Histogram: 1 0 0 0 0 0 0 0 0 0
Nghost:           1582 ave        1582 max        1582 min
Histogram: 1 0 0 0 0 0 0 0 0 0
Neighs:              0 ave           0 max           0 min
Histogram: 1 0 0 0 0 0 0 0 0 0
FullNghs:         6040 ave        6040 max        6040 min
Histogram: 1 0 0 0 0 0 0 0 0 0

Total # of neighbors = 6040
Ave neighs/atom = 335.55556
Neighbor list builds = 0
Dangerous builds = 0
set atom * x 0.0 y 0.0 z 0.0
Setting atom values ...
  18 settings made for x
  18 settings made for y
  18 settings made for z
change_box all     x final 0 2.7098479949489858 y final 0 13.2691964428957 z final 0 11.045535376590912      xy final 0.06277160438719642 xz final -2.3234191722562696 yz final -1.8155943156732726 units box
Changing box ...
  triclinic box = (0 0 0) to (2.709848 13.269196 11.045535) with tilt (0.062771604 -2.3234192 -1.8155943)
  triclinic box = (0 0 0) to (2.709848 13.269196 11.045535) with tilt (0.062771604 -2.3234192 -1.8155943)
  triclinic box = (0 0 0) to (2.709848 13.269196 11.045535) with tilt (0.062771604 -2.3234192 -1.8155943)
  triclinic box = (0 0 0) to (2.709848 13.269196 11.045535) with tilt (0.062771604 -2.3234192 -1.8155943)
  triclinic box = (0 0 0) to (2.709848 13.269196 11.045535) with tilt (0.062771604 -2.3234192 -1.8155943)
  triclinic box = (0 0 0) to (2.709848 13.269196 11.045535) with tilt (0.062771604 -2.3234192 -1.8155943)
echo none
run 0
WARNING: No fixes with time integration, atoms won't move (src/src/verlet.cpp:60)
Per MPI rank memory allocation (min/avg/max) = 3.865 | 3.865 | 3.865 Mbytes
    PotEng          Pxx           E_mol          E_coul    
-72.677409     -67668.36       0              0            
Loop time of 7.93e-07 on 1 procs for 0 steps with 18 atoms

252.2% CPU use with 1 MPI tasks x 1 OpenMP threads

MPI task timing breakdown:
Section |  min time  |  avg time  |  max time  |%varavg| %total
---------------------------------------------------------------
Pair    | 0          | 0          | 0          |   0.0 |  0.00
Neigh   | 0          | 0          | 0          |   0.0 |  0.00
Comm    | 0          | 0          | 0          |   0.0 |  0.00
Output  | 0          | 0          | 0          |   0.0 |  0.00
Modify  | 0          | 0          | 0          |   0.0 |  0.00
Other   |            | 7.93e-07   |            |       |100.00

Nlocal:             18 ave          18 max          18 min
Histogram: 1 0 0 0 0 0 0 0 0 0
Nghost:           1582 ave        1582 max        1582 min
Histogram: 1 0 0 0 0 0 0 0 0 0
Neighs:              0 ave           0 max           0 min
Histogram: 1 0 0 0 0 0 0 0 0 0
FullNghs:         6040 ave        6040 max        6040 min
Histogram: 1 0 0 0 0 0 0 0 0 0

Total # of neighbors = 6040
Ave neighs/atom = 335.55556
Neighbor list builds = 0
Dangerous builds = 0
set atom * x 0.0 y 0.0 z 0.0
Setting atom values ...
  18 settings made for x
  18 settings made for y
  18 settings made for z
change_box all     x final 0 2.4111887228872084 y final 0 12.734042635511955 z final 0 10.621613826568966      xy final -2.063291586796951 xz final 0.3493947507003768 yz final 0.9964732803757055 units box
Changing box ...
  triclinic box = (0 0 0) to (2.4111887 13.269196 11.045535) with tilt (0.062771604 -2.3234192 -1.8155943)
  triclinic box = (0 0 0) to (2.4111887 12.734043 11.045535) with tilt (0.062771604 -2.3234192 -1.8155943)
  triclinic box = (0 0 0) to (2.4111887 12.734043 10.621614) with tilt (0.062771604 -2.3234192 -1.8155943)
  triclinic box = (0 0 0) to (2.4111887 12.734043 10.621614) with tilt (-2.0632916 -2.3234192 -1.8155943)
  triclinic box = (0 0 0) to (2.4111887 12.734043 10.621614) with tilt (-2.0632916 0.34939475 -1.8155943)
  triclinic box = (0 0 0) to (2.4111887 12.734043 10.621614) with tilt (-2.0632916 0.34939475 0.99647328)
echo none
run 0
WARNING: No fixes with time integration, atoms won't move (src/src/verlet.cpp:60)
Per MPI rank memory allocation (min/avg/max) = 3.877 | 3.877 | 3.877 Mbytes
    PotEng          Pxx           E_mol          E_coul    
-70.678349      169898.81      0              0            
Loop time of 1.084e-06 on 1 procs for 0 steps with 18 atoms

553.5% CPU use with 1 MPI tasks x 1 OpenMP threads

MPI task timing breakdown:
Section |  min time  |  avg time  |  max time  |%varavg| %total
---------------------------------------------------------------
Pair    | 0          | 0          | 0          |   0.0 |  0.00
Neigh   | 0          | 0          | 0          |   0.0 |  0.00
Comm    | 0          | 0          | 0          |   0.0 |  0.00
Output  | 0          | 0          | 0          |   0.0 |  0.00
Modify  | 0          | 0          | 0          |   0.0 |  0.00
Other   |            | 1.084e-06  |            |       |100.00

Nlocal:             18 ave          18 max          18 min
Histogram: 1 0 0 0 0 0 0 0 0 0
Nghost:           1986 ave        1986 max        1986 min
Histogram: 1 0 0 0 0 0 0 0 0 0
Neighs:              0 ave           0 max           0 min
Histogram: 1 0 0 0 0 0 0 0 0 0
FullNghs:         7486 ave        7486 max        7486 min
Histogram: 1 0 0 0 0 0 0 0 0 0

Total # of neighbors = 7486
Ave neighs/atom = 415.88889
Neighbor list builds = 0
Dangerous builds = 0
set atom * x 0.0 y 0.0 z 0.0
Setting atom values ...
  18 settings made for x
  18 settings made for y
  18 settings made for z
change_box all     x final 0 2.5614423902091543 y final 0 13.003210222294308 z final 0 10.93607588404778      xy final -0.9803355811420785 xz final -1.0559951316820844 yz final -0.606955452569483 units box
Changing box ...
  triclinic box = (0 0 0) to (2.5614424 12.734043 10.621614) with tilt (-2.0632916 0.34939475 0.99647328)
  triclinic box = (0 0 0) to (2.5614424 13.00321 10.621614) with tilt (-2.0632916 0.34939475 0.99647328)
  triclinic box = (0 0 0) to (2.5614424 13.00321 10.936076) with tilt (-2.0632916 0.34939475 0.99647328)
  triclinic box = (0 0 0) to (2.5614424 13.00321 10.936076) with tilt (-0.98033558 0.34939475 0.99647328)
  triclinic box = (0 0 0) to (2.5614424 13.00321 10.936076) with tilt (-0.98033558 -1.0559951 0.99647328)
  triclinic box = (0 0 0) to (2.5614424 13.00321 10.936076) with tilt (-0.98033558 -1.0559951 -0.60695545)
echo none
run 0
WARNING: No fixes with time integration, atoms won't move (src/src/verlet.cpp:60)
Per MPI rank memory allocation (min/avg/max) = 3.869 | 3.869 | 3.869 Mbytes
    PotEng          Pxx           E_mol          E_coul    
-75.087976      23654.745      0              0            
Loop time of 9.98e-07 on 1 procs for 0 steps with 18 atoms

701.4% CPU use with 1 MPI tasks x 1 OpenMP threads

MPI task timing breakdown:
Section |  min time  |  avg time  |  max time  |%varavg| %total
---------------------------------------------------------------
Pair    | 0          | 0          | 0          |   0.0 |  0.00
Neigh   | 0          | 0          | 0          |   0.0 |  0.00
Comm    | 0          | 0          | 0          |   0.0 |  0.00
Output  | 0          | 0          | 0          |   0.0 |  0.00
Modify  | 0          | 0          | 0          |   0.0 |  0.00
Other   |            | 9.98e-07   |            |       |100.00

Nlocal:             18 ave          18 max          18 min
Histogram: 1 0 0 0 0 0 0 0 0 0
Nghost:           1722 ave        1722 max        1722 min
Histogram: 1 0 0 0 0 0 0 0 0 0
Neighs:              0 ave           0 max           0 min
Histogram: 1 0 0 0 0 0 0 0 0 0
FullNghs:         6612 ave        6612 max        6612 min
Histogram: 1 0 0 0 0 0 0 0 0 0

Total # of neighbors = 6612
Ave neighs/atom = 367.33333
Neighbor list builds = 0
Dangerous builds = 0
set atom * x 0.0 y 0.0 z 0.0
Setting atom values ...
  18 settings made for x
  18 settings made for y
  18 settings made for z
change_box all     x final 0 2.5614423902091548 y final 0 13.003210222294317 z final 0 10.936075884047785      xy final -0.9803355811420943 xz final -1.0559951316820726 yz final -0.6069554525694839 units box
Changing box ...
  triclinic box = (0 0 0) to (2.5614424 13.00321 10.936076) with tilt (-0.98033558 -1.0559951 -0.60695545)
  triclinic box = (0 0 0) to (2.5614424 13.00321 10.936076) with tilt (-0.98033558 -1.0559951 -0.60695545)
  triclinic box = (0 0 0) to (2.5614424 13.00321 10.936076) with tilt (-0.98033558 -1.0559951 -0.60695545)
  triclinic box = (0 0 0) to (2.5614424 13.00321 10.936076) with tilt (-0.98033558 -1.0559951 -0.60695545)
  triclinic box = (0 0 0) to (2.5614424 13.00321 10.936076) with tilt (-0.98033558 -1.0559951 -0.60695545)
  triclinic box = (0 0 0) to (2.5614424 13.00321 10.936076) with tilt (-0.98033558 -1.0559951 -0.60695545)
echo none
run 0
WARNING: No fixes with time integration, atoms won't move (src/src/verlet.cpp:60)
Per MPI rank memory allocation (min/avg/max) = 3.869 | 3.869 | 3.869 Mbytes
    PotEng          Pxx           E_mol          E_coul    
-75.087976      23654.745      0              0            
Loop time of 1.159e-06 on 1 procs for 0 steps with 18 atoms

604.0% CPU use with 1 MPI tasks x 1 OpenMP threads

MPI task timing breakdown:
Section |  min time  |  avg time  |  max time  |%varavg| %total
---------------------------------------------------------------
Pair    | 0          | 0          | 0          |   0.0 |  0.00
Neigh   | 0          | 0          | 0          |   0.0 |  0.00
Comm    | 0          | 0          | 0          |   0.0 |  0.00
Output  | 0          | 0          | 0          |   0.0 |  0.00
Modify  | 0          | 0          | 0          |   0.0 |  0.00
Other   |            | 1.159e-06  |            |       |100.00

Nlocal:             18 ave          18 max          18 min
Histogram: 1 0 0 0 0 0 0 0 0 0
Nghost:           1722 ave        1722 max        1722 min
Histogram: 1 0 0 0 0 0 0 0 0 0
Neighs:              0 ave           0 max           0 min
Histogram: 1 0 0 0 0 0 0 0 0 0
FullNghs:         6612 ave        6612 max        6612 min
Histogram: 1 0 0 0 0 0 0 0 0 0

Total # of neighbors = 6612
Ave neighs/atom = 367.33333
Neighbor list builds = 0
Dangerous builds = 0
set atom * x 0.0 y 0.0 z 0.0
Setting atom values ...
  18 settings made for x
  18 settings made for y
  18 settings made for z
change_box all     x final 0 2.744037783921255 y final 0 13.927157312813213 z final 0 11.578637719357442      xy final 0.11379548851882515 xz final 1.0507979768429094 yz final 1.5722283843380644 units box
Changing box ...
  triclinic box = (0 0 0) to (2.7440378 13.00321 10.936076) with tilt (-0.98033558 -1.0559951 -0.60695545)
  triclinic box = (0 0 0) to (2.7440378 13.927157 10.936076) with tilt (-0.98033558 -1.0559951 -0.60695545)
  triclinic box = (0 0 0) to (2.7440378 13.927157 11.578638) with tilt (-0.98033558 -1.0559951 -0.60695545)
  triclinic box = (0 0 0) to (2.7440378 13.927157 11.578638) with tilt (0.11379549 -1.0559951 -0.60695545)
  triclinic box = (0 0 0) to (2.7440378 13.927157 11.578638) with tilt (0.11379549 1.050798 -0.60695545)
  triclinic box = (0 0 0) to (2.7440378 13.927157 11.578638) with tilt (0.11379549 1.050798 1.5722284)
echo none
run 0
WARNING: No fixes with time integration, atoms won't move (src/src/verlet.cpp:60)
Per MPI rank memory allocation (min/avg/max) = 3.87 | 3.87 | 3.87 Mbytes
    PotEng          Pxx           E_mol          E_coul    
-70.042878     -266687.14      0              0            
Loop time of 9.72e-07 on 1 procs for 0 steps with 18 atoms

1028.8% CPU use with 1 MPI tasks x 1 OpenMP threads

MPI task timing breakdown:
Section |  min time  |  avg time  |  max time  |%varavg| %total
---------------------------------------------------------------
Pair    | 0          | 0          | 0          |   0.0 |  0.00
Neigh   | 0          | 0          | 0          |   0.0 |  0.00
Comm    | 0          | 0          | 0          |   0.0 |  0.00
Output  | 0          | 0          | 0          |   0.0 |  0.00
Modify  | 0          | 0          | 0          |   0.0 |  0.00
Other   |            | 9.72e-07   |            |       |100.00

Nlocal:             18 ave          18 max          18 min
Histogram: 1 0 0 0 0 0 0 0 0 0
Nghost:           1358 ave        1358 max        1358 min
Histogram: 1 0 0 0 0 0 0 0 0 0
Neighs:              0 ave           0 max           0 min
Histogram: 1 0 0 0 0 0 0 0 0 0
FullNghs:         5366 ave        5366 max        5366 min
Histogram: 1 0 0 0 0 0 0 0 0 0

Total # of neighbors = 5366
Ave neighs/atom = 298.11111
Neighbor list builds = 0
Dangerous builds = 0
set atom * x 0.0 y 0.0 z 0.0
Setting atom values ...
  18 settings made for x
  18 settings made for y
  18 settings made for z
change_box all     x final 0 2.6067894119228825 y final 0 13.240098158253828 z final 0 11.157899732517711      xy final -0.7308674668934765 xz final -0.49694682249088784 yz final 0.007531415418373024 units box
Changing box ...
  triclinic box = (0 0 0) to (2.6067894 13.927157 11.578638) with tilt (0.11379549 1.050798 1.5722284)
  triclinic box = (0 0 0) to (2.6067894 13.240098 11.578638) with tilt (0.11379549 1.050798 1.5722284)
  triclinic box = (0 0 0) to (2.6067894 13.240098 11.1579) with tilt (0.11379549 1.050798 1.5722284)
  triclinic box = (0 0 0) to (2.6067894 13.240098 11.1579) with tilt (-0.73086747 1.050798 1.5722284)
  triclinic box = (0 0 0) to (2.6067894 13.240098 11.1579) with tilt (-0.73086747 -0.49694682 1.5722284)
  triclinic box = (0 0 0) to (2.6067894 13.240098 11.1579) with tilt (-0.73086747 -0.49694682 0.0075314154)
echo none
run 0
WARNING: No fixes with time integration, atoms won't move (src/src/verlet.cpp:60)
Per MPI rank memory allocation (min/avg/max) = 3.87 | 3.87 | 3.87 Mbytes
    PotEng          Pxx           E_mol          E_coul    
-75.64145      -6996.1339      0              0            
Loop time of 8.86e-07 on 1 procs for 0 steps with 18 atoms

902.9% CPU use with 1 MPI tasks x 1 OpenMP threads

MPI task timing breakdown:
Section |  min time  |  avg time  |  max time  |%varavg| %total
---------------------------------------------------------------
Pair    | 0          | 0          | 0          |   0.0 |  0.00
Neigh   | 0          | 0          | 0          |   0.0 |  0.00
Comm    | 0          | 0          | 0          |   0.0 |  0.00
Output  | 0          | 0          | 0          |   0.0 |  0.00
Modify  | 0          | 0          | 0          |   0.0 |  0.00
Other   |            | 8.86e-07   |            |       |100.00

Nlocal:             18 ave          18 max          18 min
Histogram: 1 0 0 0 0 0 0 0 0 0
Nghost:           1549 ave        1549 max        1549 min
Histogram: 1 0 0 0 0 0 0 0 0 0
Neighs:              0 ave           0 max           0 min
Histogram: 1 0 0 0 0 0 0 0 0 0
FullNghs:         6276 ave        6276 max        6276 min
Histogram: 1 0 0 0 0 0 0 0 0 0

Total # of neighbors = 6276
Ave neighs/atom = 348.66667
Neighbor list builds = 0
Dangerous builds = 0
set atom * x 0.0 y 0.0 z 0.0
Setting atom values ...
  18 settings made for x
  18 settings made for y
  18 settings made for z
change_box all     x final 0 2.6067894119228825 y final 0 13.240098158253828 z final 0 11.157899732517713      xy final -0.7308674668934851 xz final -0.49694682249088257 yz final 0.007531415418372812 units box
Changing box ...
  triclinic box = (0 0 0) to (2.6067894 13.240098 11.1579) with tilt (-0.73086747 -0.49694682 0.0075314154)
  triclinic box = (0 0 0) to (2.6067894 13.240098 11.1579) with tilt (-0.73086747 -0.49694682 0.0075314154)
  triclinic box = (0 0 0) to (2.6067894 13.240098 11.1579) with tilt (-0.73086747 -0.49694682 0.0075314154)
  triclinic box = (0 0 0) to (2.6067894 13.240098 11.1579) with tilt (-0.73086747 -0.49694682 0.0075314154)
  triclinic box = (0 0 0) to (2.6067894 13.240098 11.1579) with tilt (-0.73086747 -0.49694682 0.0075314154)
  triclinic box = (0 0 0) to (2.6067894 13.240098 11.1579) with tilt (-0.73086747 -0.49694682 0.0075314154)
echo none
run 0
WARNING: No fixes with time integration, atoms won't move (src/src/verlet.cpp:60)
Per MPI rank memory allocation (min/avg/max) = 3.87 | 3.87 | 3.87 Mbytes
    PotEng          Pxx           E_mol          E_coul    
-75.64145      -6996.1339      0              0            
Loop time of 9.15e-07 on 1 procs for 0 steps with 18 atoms

546.4% CPU use with 1 MPI tasks x 1 OpenMP threads

MPI task timing breakdown:
Section |  min time  |  avg time  |  max time  |%varavg| %total
---------------------------------------------------------------
Pair    | 0          | 0          | 0          |   0.0 |  0.00
Neigh   | 0          | 0          | 0          |   0.0 |  0.00
Comm    | 0          | 0          | 0          |   0.0 |  0.00
Output  | 0          | 0          | 0          |   0.0 |  0.00
Modify  | 0          | 0          | 0          |   0.0 |  0.00
Other   |            | 9.15e-07   |            |       |100.00

Nlocal:             18 ave          18 max          18 min
Histogram: 1 0 0 0 0 0 0 0 0 0
Nghost:           1549 ave        1549 max        1549 min
Histogram: 1 0 0 0 0 0 0 0 0 0
Neighs:              0 ave           0 max           0 min
Histogram: 1 0 0 0 0 0 0 0 0 0
FullNghs:         6276 ave        6276 max        6276 min
Histogram: 1 0 0 0 0 0 0 0 0 0

Total # of neighbors = 6276
Ave neighs/atom = 348.66667
Neighbor list builds = 0
Dangerous builds = 0
set atom * x 0.0 y 0.0 z 0.0
Setting atom values ...
  18 settings made for x
  18 settings made for y
  18 settings made for z
change_box all     x final 0 2.547968443031094 y final 0 13.219349415030221 z final 0 11.591680560396341      xy final -0.34206285884220894 xz final -0.2686713781291408 yz final 0.9766709253379524 units box
Changing box ...
  triclinic box = (0 0 0) to (2.5479684 13.240098 11.1579) with tilt (-0.73086747 -0.49694682 0.0075314154)
  triclinic box = (0 0 0) to (2.5479684 13.219349 11.1579) with tilt (-0.73086747 -0.49694682 0.0075314154)
  triclinic box = (0 0 0) to (2.5479684 13.219349 11.591681) with tilt (-0.73086747 -0.49694682 0.0075314154)
  triclinic box = (0 0 0) to (2.5479684 13.219349 11.591681) with tilt (-0.34206286 -0.49694682 0.0075314154)
  triclinic box = (0 0 0) to (2.5479684 13.219349 11.591681) with tilt (-0.34206286 -0.26867138 0.0075314154)
  triclinic box = (0 0 0) to (2.5479684 13.219349 11.591681) with tilt (-0.34206286 -0.26867138 0.97667093)
echo none
run 0
WARNING: No fixes with time integration, atoms won't move (src/src/verlet.cpp:60)
Per MPI rank memory allocation (min/avg/max) = 3.87 | 3.87 | 3.87 Mbytes
    PotEng          Pxx           E_mol          E_coul    
-75.969314      12307.436      0              0            
Loop time of 9.83e-07 on 1 procs for 0 steps with 18 atoms

813.8% CPU use with 1 MPI tasks x 1 OpenMP threads

MPI task timing breakdown:
Section |  min time  |  avg time  |  max time  |%varavg| %total
---------------------------------------------------------------
Pair    | 0          | 0          | 0          |   0.0 |  0.00
Neigh   | 0          | 0          | 0          |   0.0 |  0.00
Comm    | 0          | 0          | 0          |   0.0 |  0.00
Output  | 0          | 0          | 0          |   0.0 |  0.00
Modify  | 0          | 0          | 0          |   0.0 |  0.00
Other   |            | 9.83e-07   |            |       |100.00

Nlocal:             18 ave          18 max          18 min
Histogram: 1 0 0 0 0 0 0 0 0 0
Nghost:           1476 ave        1476 max        1476 min
Histogram: 1 0 0 0 0 0 0 0 0 0
Neighs:              0 ave           0 max           0 min
Histogram: 1 0 0 0 0 0 0 0 0 0
FullNghs:         6080 ave        6080 max        6080 min
Histogram: 1 0 0 0 0 0 0 0 0 0

Total # of neighbors = 6080
Ave neighs/atom = 337.77778
Neighbor list builds = 0
Dangerous builds = 0
set atom * x 0.0 y 0.0 z 0.0
Setting atom values ...
  18 settings made for x
  18 settings made for y
  18 settings made for z
change_box all     x final 0 2.5679091515788603 y final 0 13.221829003205785 z final 0 11.445236260042716      xy final -0.477650149658282 xz final -0.35184604741557657 yz final 0.6354210604015746 units box
Changing box ...
  triclinic box = (0 0 0) to (2.5679092 13.219349 11.591681) with tilt (-0.34206286 -0.26867138 0.97667093)
  triclinic box = (0 0 0) to (2.5679092 13.221829 11.591681) with tilt (-0.34206286 -0.26867138 0.97667093)
  triclinic box = (0 0 0) to (2.5679092 13.221829 11.445236) with tilt (-0.34206286 -0.26867138 0.97667093)
  triclinic box = (0 0 0) to (2.5679092 13.221829 11.445236) with tilt (-0.47765015 -0.26867138 0.97667093)
  triclinic box = (0 0 0) to (2.5679092 13.221829 11.445236) with tilt (-0.47765015 -0.35184605 0.97667093)
  triclinic box = (0 0 0) to (2.5679092 13.221829 11.445236) with tilt (-0.47765015 -0.35184605 0.63542106)
echo none
run 0
WARNING: No fixes with time integration, atoms won't move (src/src/verlet.cpp:60)
Per MPI rank memory allocation (min/avg/max) = 3.87 | 3.87 | 3.87 Mbytes
    PotEng          Pxx           E_mol          E_coul    
-76.031831      4420.2041      0              0            
Loop time of 1.291e-06 on 1 procs for 0 steps with 18 atoms

774.6% CPU use with 1 MPI tasks x 1 OpenMP threads

MPI task timing breakdown:
Section |  min time  |  avg time  |  max time  |%varavg| %total
---------------------------------------------------------------
Pair    | 0          | 0          | 0          |   0.0 |  0.00
Neigh   | 0          | 0          | 0          |   0.0 |  0.00
Comm    | 0          | 0          | 0          |   0.0 |  0.00
Output  | 0          | 0          | 0          |   0.0 |  0.00
Modify  | 0          | 0          | 0          |   0.0 |  0.00
Other   |            | 1.291e-06  |            |       |100.00

Nlocal:             18 ave          18 max          18 min
Histogram: 1 0 0 0 0 0 0 0 0 0
Nghost:           1509 ave        1509 max        1509 min
Histogram: 1 0 0 0 0 0 0 0 0 0
Neighs:              0 ave           0 max           0 min
Histogram: 1 0 0 0 0 0 0 0 0 0
FullNghs:         6108 ave        6108 max        6108 min
Histogram: 1 0 0 0 0 0 0 0 0 0

Total # of neighbors = 6108
Ave neighs/atom = 339.33333
Neighbor list builds = 0
Dangerous builds = 0
set atom * x 0.0 y 0.0 z 0.0
Setting atom values ...
  18 settings made for x
  18 settings made for y
  18 settings made for z
change_box all     x final 0 2.56790915157886 y final 0 13.22182900320578 z final 0 11.44523626004272      xy final -0.47765014965827485 xz final -0.35184604741558123 yz final 0.6354210604015692 units box
Changing box ...
  triclinic box = (0 0 0) to (2.5679092 13.221829 11.445236) with tilt (-0.47765015 -0.35184605 0.63542106)
  triclinic box = (0 0 0) to (2.5679092 13.221829 11.445236) with tilt (-0.47765015 -0.35184605 0.63542106)
  triclinic box = (0 0 0) to (2.5679092 13.221829 11.445236) with tilt (-0.47765015 -0.35184605 0.63542106)
  triclinic box = (0 0 0) to (2.5679092 13.221829 11.445236) with tilt (-0.47765015 -0.35184605 0.63542106)
  triclinic box = (0 0 0) to (2.5679092 13.221829 11.445236) with tilt (-0.47765015 -0.35184605 0.63542106)
  triclinic box = (0 0 0) to (2.5679092 13.221829 11.445236) with tilt (-0.47765015 -0.35184605 0.63542106)
echo none
run 0
WARNING: No fixes with time integration, atoms won't move (src/src/verlet.cpp:60)
Per MPI rank memory allocation (min/avg/max) = 3.87 | 3.87 | 3.87 Mbytes
    PotEng          Pxx           E_mol          E_coul    
-76.031831      4420.2041      0              0            
Loop time of 1.083e-06 on 1 procs for 0 steps with 18 atoms

738.7% CPU use with 1 MPI tasks x 1 OpenMP threads

MPI task timing breakdown:
Section |  min time  |  avg time  |  max time  |%varavg| %total
---------------------------------------------------------------
Pair    | 0          | 0          | 0          |   0.0 |  0.00
Neigh   | 0          | 0          | 0          |   0.0 |  0.00
Comm    | 0          | 0          | 0          |   0.0 |  0.00
Output  | 0          | 0          | 0          |   0.0 |  0.00
Modify  | 0          | 0          | 0          |   0.0 |  0.00
Other   |            | 1.083e-06  |            |       |100.00

Nlocal:             18 ave          18 max          18 min
Histogram: 1 0 0 0 0 0 0 0 0 0
Nghost:           1509 ave        1509 max        1509 min
Histogram: 1 0 0 0 0 0 0 0 0 0
Neighs:              0 ave           0 max           0 min
Histogram: 1 0 0 0 0 0 0 0 0 0
FullNghs:         6108 ave        6108 max        6108 min
Histogram: 1 0 0 0 0 0 0 0 0 0

Total # of neighbors = 6108
Ave neighs/atom = 339.33333
Neighbor list builds = 0
Dangerous builds = 0
set atom * x 0.0 y 0.0 z 0.0
Setting atom values ...
  18 settings made for x
  18 settings made for y
  18 settings made for z
change_box all     x final 0 2.6253139532968985 y final 0 13.125496514200927 z final 0 11.208352865957085      xy final -0.586391358607332 xz final -0.34189434281583536 yz final 1.1566177533527289 units box
Changing box ...
  triclinic box = (0 0 0) to (2.625314 13.221829 11.445236) with tilt (-0.47765015 -0.35184605 0.63542106)
  triclinic box = (0 0 0) to (2.625314 13.125497 11.445236) with tilt (-0.47765015 -0.35184605 0.63542106)
  triclinic box = (0 0 0) to (2.625314 13.125497 11.208353) with tilt (-0.47765015 -0.35184605 0.63542106)
  triclinic box = (0 0 0) to (2.625314 13.125497 11.208353) with tilt (-0.58639136 -0.35184605 0.63542106)
  triclinic box = (0 0 0) to (2.625314 13.125497 11.208353) with tilt (-0.58639136 -0.34189434 0.63542106)
  triclinic box = (0 0 0) to (2.625314 13.125497 11.208353) with tilt (-0.58639136 -0.34189434 1.1566178)
echo none
run 0
WARNING: No fixes with time integration, atoms won't move (src/src/verlet.cpp:60)
Per MPI rank memory allocation (min/avg/max) = 3.87 | 3.87 | 3.87 Mbytes
    PotEng          Pxx           E_mol          E_coul    
-76.08721      -23486.589      0              0            
Loop time of 1.123e-06 on 1 procs for 0 steps with 18 atoms

534.3% CPU use with 1 MPI tasks x 1 OpenMP threads

MPI task timing breakdown:
Section |  min time  |  avg time  |  max time  |%varavg| %total
---------------------------------------------------------------
Pair    | 0          | 0          | 0          |   0.0 |  0.00
Neigh   | 0          | 0          | 0          |   0.0 |  0.00
Comm    | 0          | 0          | 0          |   0.0 |  0.00
Output  | 0          | 0          | 0          |   0.0 |  0.00
Modify  | 0          | 0          | 0          |   0.0 |  0.00
Other   |            | 1.123e-06  |            |       |100.00

Nlocal:             18 ave          18 max          18 min
Histogram: 1 0 0 0 0 0 0 0 0 0
Nghost:           1606 ave        1606 max        1606 min
Histogram: 1 0 0 0 0 0 0 0 0 0
Neighs:              0 ave           0 max           0 min
Histogram: 1 0 0 0 0 0 0 0 0 0
FullNghs:         6226 ave        6226 max        6226 min
Histogram: 1 0 0 0 0 0 0 0 0 0

Total # of neighbors = 6226
Ave neighs/atom = 345.88889
Neighbor list builds = 0
Dangerous builds = 0
set atom * x 0.0 y 0.0 z 0.0
Setting atom values ...
  18 settings made for x
  18 settings made for y
  18 settings made for z
change_box all     x final 0 2.5993100331877117 y final 0 13.16699007048766 z final 0 11.315920965051847      xy final -0.5380988868061438 xz final -0.3454061598862093 yz final 0.9246671060567571 units box
Changing box ...
  triclinic box = (0 0 0) to (2.59931 13.125497 11.208353) with tilt (-0.58639136 -0.34189434 1.1566178)
  triclinic box = (0 0 0) to (2.59931 13.16699 11.208353) with tilt (-0.58639136 -0.34189434 1.1566178)
  triclinic box = (0 0 0) to (2.59931 13.16699 11.315921) with tilt (-0.58639136 -0.34189434 1.1566178)
  triclinic box = (0 0 0) to (2.59931 13.16699 11.315921) with tilt (-0.53809889 -0.34189434 1.1566178)
  triclinic box = (0 0 0) to (2.59931 13.16699 11.315921) with tilt (-0.53809889 -0.34540616 1.1566178)
  triclinic box = (0 0 0) to (2.59931 13.16699 11.315921) with tilt (-0.53809889 -0.34540616 0.92466711)
echo none
run 0
WARNING: No fixes with time integration, atoms won't move (src/src/verlet.cpp:60)
Per MPI rank memory allocation (min/avg/max) = 3.87 | 3.87 | 3.87 Mbytes
    PotEng          Pxx           E_mol          E_coul    
-76.190763     -12197.757      0              0            
Loop time of 9.27e-07 on 1 procs for 0 steps with 18 atoms

755.1% CPU use with 1 MPI tasks x 1 OpenMP threads

MPI task timing breakdown:
Section |  min time  |  avg time  |  max time  |%varavg| %total
---------------------------------------------------------------
Pair    | 0          | 0          | 0          |   0.0 |  0.00
Neigh   | 0          | 0          | 0          |   0.0 |  0.00
Comm    | 0          | 0          | 0          |   0.0 |  0.00
Output  | 0          | 0          | 0          |   0.0 |  0.00
Modify  | 0          | 0          | 0          |   0.0 |  0.00
Other   |            | 9.27e-07   |            |       |100.00

Nlocal:             18 ave          18 max          18 min
Histogram: 1 0 0 0 0 0 0 0 0 0
Nghost:           1562 ave        1562 max        1562 min
Histogram: 1 0 0 0 0 0 0 0 0 0
Neighs:              0 ave           0 max           0 min
Histogram: 1 0 0 0 0 0 0 0 0 0
FullNghs:         6166 ave        6166 max        6166 min
Histogram: 1 0 0 0 0 0 0 0 0 0

Total # of neighbors = 6166
Ave neighs/atom = 342.55556
Neighbor list builds = 0
Dangerous builds = 0
set atom * x 0.0 y 0.0 z 0.0
Setting atom values ...
  18 settings made for x
  18 settings made for y
  18 settings made for z
change_box all     x final 0 2.599310033187711 y final 0 13.166990070487664 z final 0 11.315920965051852      xy final -0.5380988868061412 xz final -0.34540615988620854 yz final 0.9246671060567536 units box
Changing box ...
  triclinic box = (0 0 0) to (2.59931 13.16699 11.315921) with tilt (-0.53809889 -0.34540616 0.92466711)
  triclinic box = (0 0 0) to (2.59931 13.16699 11.315921) with tilt (-0.53809889 -0.34540616 0.92466711)
  triclinic box = (0 0 0) to (2.59931 13.16699 11.315921) with tilt (-0.53809889 -0.34540616 0.92466711)
  triclinic box = (0 0 0) to (2.59931 13.16699 11.315921) with tilt (-0.53809889 -0.34540616 0.92466711)
  triclinic box = (0 0 0) to (2.59931 13.16699 11.315921) with tilt (-0.53809889 -0.34540616 0.92466711)
  triclinic box = (0 0 0) to (2.59931 13.16699 11.315921) with tilt (-0.53809889 -0.34540616 0.92466711)
echo none
run 0
WARNING: No fixes with time integration, atoms won't move (src/src/verlet.cpp:60)
Per MPI rank memory allocation (min/avg/max) = 3.87 | 3.87 | 3.87 Mbytes
    PotEng          Pxx           E_mol          E_coul    
-76.190763     -12197.757      0              0            
Loop time of 1.002e-06 on 1 procs for 0 steps with 18 atoms

798.4% CPU use with 1 MPI tasks x 1 OpenMP threads

MPI task timing breakdown:
Section |  min time  |  avg time  |  max time  |%varavg| %total
---------------------------------------------------------------
Pair    | 0          | 0          | 0          |   0.0 |  0.00
Neigh   | 0          | 0          | 0          |   0.0 |  0.00
Comm    | 0          | 0          | 0          |   0.0 |  0.00
Output  | 0          | 0          | 0          |   0.0 |  0.00
Modify  | 0          | 0          | 0          |   0.0 |  0.00
Other   |            | 1.002e-06  |            |       |100.00

Nlocal:             18 ave          18 max          18 min
Histogram: 1 0 0 0 0 0 0 0 0 0
Nghost:           1562 ave        1562 max        1562 min
Histogram: 1 0 0 0 0 0 0 0 0 0
Neighs:              0 ave           0 max           0 min
Histogram: 1 0 0 0 0 0 0 0 0 0
FullNghs:         6166 ave        6166 max        6166 min
Histogram: 1 0 0 0 0 0 0 0 0 0

Total # of neighbors = 6166
Ave neighs/atom = 342.55556
Neighbor list builds = 0
Dangerous builds = 0
set atom * x 0.0 y 0.0 z 0.0
Setting atom values ...
  18 settings made for x
  18 settings made for y
  18 settings made for z
change_box all     x final 0 2.5609781298160197 y final 0 13.163861468241477 z final 0 11.335506156028876      xy final -0.3997866018154265 xz final -0.1923621471902534 yz final 0.6004055916672337 units box
Changing box ...
  triclinic box = (0 0 0) to (2.5609781 13.16699 11.315921) with tilt (-0.53809889 -0.34540616 0.92466711)
  triclinic box = (0 0 0) to (2.5609781 13.163861 11.315921) with tilt (-0.53809889 -0.34540616 0.92466711)
  triclinic box = (0 0 0) to (2.5609781 13.163861 11.335506) with tilt (-0.53809889 -0.34540616 0.92466711)
  triclinic box = (0 0 0) to (2.5609781 13.163861 11.335506) with tilt (-0.3997866 -0.34540616 0.92466711)
  triclinic box = (0 0 0) to (2.5609781 13.163861 11.335506) with tilt (-0.3997866 -0.19236215 0.92466711)
  triclinic box = (0 0 0) to (2.5609781 13.163861 11.335506) with tilt (-0.3997866 -0.19236215 0.60040559)
echo none
run 0
WARNING: No fixes with time integration, atoms won't move (src/src/verlet.cpp:60)
Per MPI rank memory allocation (min/avg/max) = 3.87 | 3.87 | 3.87 Mbytes
    PotEng          Pxx           E_mol          E_coul    
-76.383723      1762.2956      0              0            
Loop time of 1.217e-06 on 1 procs for 0 steps with 18 atoms

575.2% CPU use with 1 MPI tasks x 1 OpenMP threads

MPI task timing breakdown:
Section |  min time  |  avg time  |  max time  |%varavg| %total
---------------------------------------------------------------
Pair    | 0          | 0          | 0          |   0.0 |  0.00
Neigh   | 0          | 0          | 0          |   0.0 |  0.00
Comm    | 0          | 0          | 0          |   0.0 |  0.00
Output  | 0          | 0          | 0          |   0.0 |  0.00
Modify  | 0          | 0          | 0          |   0.0 |  0.00
Other   |            | 1.217e-06  |            |       |100.00

Nlocal:             18 ave          18 max          18 min
Histogram: 1 0 0 0 0 0 0 0 0 0
Nghost:           1529 ave        1529 max        1529 min
Histogram: 1 0 0 0 0 0 0 0 0 0
Neighs:              0 ave           0 max           0 min
Histogram: 1 0 0 0 0 0 0 0 0 0
FullNghs:         6194 ave        6194 max        6194 min
Histogram: 1 0 0 0 0 0 0 0 0 0

Total # of neighbors = 6194
Ave neighs/atom = 344.11111
Neighbor list builds = 0
Dangerous builds = 0
set atom * x 0.0 y 0.0 z 0.0
Setting atom values ...
  18 settings made for x
  18 settings made for y
  18 settings made for z
change_box all     x final 0 2.5609781298160206 y final 0 13.16386146824148 z final 0 11.335506156028885      xy final -0.3997866018154276 xz final -0.19236214719025127 yz final 0.6004055916672238 units box
Changing box ...
  triclinic box = (0 0 0) to (2.5609781 13.163861 11.335506) with tilt (-0.3997866 -0.19236215 0.60040559)
  triclinic box = (0 0 0) to (2.5609781 13.163861 11.335506) with tilt (-0.3997866 -0.19236215 0.60040559)
  triclinic box = (0 0 0) to (2.5609781 13.163861 11.335506) with tilt (-0.3997866 -0.19236215 0.60040559)
  triclinic box = (0 0 0) to (2.5609781 13.163861 11.335506) with tilt (-0.3997866 -0.19236215 0.60040559)
  triclinic box = (0 0 0) to (2.5609781 13.163861 11.335506) with tilt (-0.3997866 -0.19236215 0.60040559)
  triclinic box = (0 0 0) to (2.5609781 13.163861 11.335506) with tilt (-0.3997866 -0.19236215 0.60040559)
echo none
run 0
WARNING: No fixes with time integration, atoms won't move (src/src/verlet.cpp:60)
Per MPI rank memory allocation (min/avg/max) = 3.87 | 3.87 | 3.87 Mbytes
    PotEng          Pxx           E_mol          E_coul    
-76.383723      1762.2956      0              0            
Loop time of 8.69e-07 on 1 procs for 0 steps with 18 atoms

805.5% CPU use with 1 MPI tasks x 1 OpenMP threads

MPI task timing breakdown:
Section |  min time  |  avg time  |  max time  |%varavg| %total
---------------------------------------------------------------
Pair    | 0          | 0          | 0          |   0.0 |  0.00
Neigh   | 0          | 0          | 0          |   0.0 |  0.00
Comm    | 0          | 0          | 0          |   0.0 |  0.00
Output  | 0          | 0          | 0          |   0.0 |  0.00
Modify  | 0          | 0          | 0          |   0.0 |  0.00
Other   |            | 8.69e-07   |            |       |100.00

Nlocal:             18 ave          18 max          18 min
Histogram: 1 0 0 0 0 0 0 0 0 0
Nghost:           1529 ave        1529 max        1529 min
Histogram: 1 0 0 0 0 0 0 0 0 0
Neighs:              0 ave           0 max           0 min
Histogram: 1 0 0 0 0 0 0 0 0 0
FullNghs:         6194 ave        6194 max        6194 min
Histogram: 1 0 0 0 0 0 0 0 0 0

Total # of neighbors = 6194
Ave neighs/atom = 344.11111
Neighbor list builds = 0
Dangerous builds = 0
set atom * x 0.0 y 0.0 z 0.0
Setting atom values ...
  18 settings made for x
  18 settings made for y
  18 settings made for z
change_box all     x final 0 2.5256013951844993 y final 0 13.41958875455529 z final 0 11.429125616064303      xy final -0.5259825841615273 xz final -0.7100956210167454 yz final 0.5619518992949015 units box
Changing box ...
  triclinic box = (0 0 0) to (2.5256014 13.163861 11.335506) with tilt (-0.3997866 -0.19236215 0.60040559)
  triclinic box = (0 0 0) to (2.5256014 13.419589 11.335506) with tilt (-0.3997866 -0.19236215 0.60040559)
  triclinic box = (0 0 0) to (2.5256014 13.419589 11.429126) with tilt (-0.3997866 -0.19236215 0.60040559)
  triclinic box = (0 0 0) to (2.5256014 13.419589 11.429126) with tilt (-0.52598258 -0.19236215 0.60040559)
  triclinic box = (0 0 0) to (2.5256014 13.419589 11.429126) with tilt (-0.52598258 -0.71009562 0.60040559)
  triclinic box = (0 0 0) to (2.5256014 13.419589 11.429126) with tilt (-0.52598258 -0.71009562 0.5619519)
echo none
run 0
WARNING: No fixes with time integration, atoms won't move (src/src/verlet.cpp:60)
Per MPI rank memory allocation (min/avg/max) = 3.87 | 3.87 | 3.87 Mbytes
    PotEng          Pxx           E_mol          E_coul    
-76.428158      11850.638      0              0            
Loop time of 1.019e-06 on 1 procs for 0 steps with 18 atoms

785.1% CPU use with 1 MPI tasks x 1 OpenMP threads

MPI task timing breakdown:
Section |  min time  |  avg time  |  max time  |%varavg| %total
---------------------------------------------------------------
Pair    | 0          | 0          | 0          |   0.0 |  0.00
Neigh   | 0          | 0          | 0          |   0.0 |  0.00
Comm    | 0          | 0          | 0          |   0.0 |  0.00
Output  | 0          | 0          | 0          |   0.0 |  0.00
Modify  | 0          | 0          | 0          |   0.0 |  0.00
Other   |            | 1.019e-06  |            |       |100.00

Nlocal:             18 ave          18 max          18 min
Histogram: 1 0 0 0 0 0 0 0 0 0
Nghost:           1529 ave        1529 max        1529 min
Histogram: 1 0 0 0 0 0 0 0 0 0
Neighs:              0 ave           0 max           0 min
Histogram: 1 0 0 0 0 0 0 0 0 0
FullNghs:         6132 ave        6132 max        6132 min
Histogram: 1 0 0 0 0 0 0 0 0 0

Total # of neighbors = 6132
Ave neighs/atom = 340.66667
Neighbor list builds = 0
Dangerous builds = 0
set atom * x 0.0 y 0.0 z 0.0
Setting atom values ...
  18 settings made for x
  18 settings made for y
  18 settings made for z
change_box all     x final 0 2.540808817436863 y final 0 13.305940220025043 z final 0 11.389248711924964      xy final -0.4696005131504157 xz final -0.479812372677611 yz final 0.5798226498229622 units box
Changing box ...
  triclinic box = (0 0 0) to (2.5408088 13.419589 11.429126) with tilt (-0.52598258 -0.71009562 0.5619519)
  triclinic box = (0 0 0) to (2.5408088 13.30594 11.429126) with tilt (-0.52598258 -0.71009562 0.5619519)
  triclinic box = (0 0 0) to (2.5408088 13.30594 11.389249) with tilt (-0.52598258 -0.71009562 0.5619519)
  triclinic box = (0 0 0) to (2.5408088 13.30594 11.389249) with tilt (-0.46960051 -0.71009562 0.5619519)
  triclinic box = (0 0 0) to (2.5408088 13.30594 11.389249) with tilt (-0.46960051 -0.47981237 0.5619519)
  triclinic box = (0 0 0) to (2.5408088 13.30594 11.389249) with tilt (-0.46960051 -0.47981237 0.57982265)
echo none
run 0
WARNING: No fixes with time integration, atoms won't move (src/src/verlet.cpp:60)
Per MPI rank memory allocation (min/avg/max) = 3.87 | 3.87 | 3.87 Mbytes
    PotEng          Pxx           E_mol          E_coul    
-76.499107      6413.8963      0              0            
Loop time of 9.82e-07 on 1 procs for 0 steps with 18 atoms

1018.3% CPU use with 1 MPI tasks x 1 OpenMP threads

MPI task timing breakdown:
Section |  min time  |  avg time  |  max time  |%varavg| %total
---------------------------------------------------------------
Pair    | 0          | 0          | 0          |   0.0 |  0.00
Neigh   | 0          | 0          | 0          |   0.0 |  0.00
Comm    | 0          | 0          | 0          |   0.0 |  0.00
Output  | 0          | 0          | 0          |   0.0 |  0.00
Modify  | 0          | 0          | 0          |   0.0 |  0.00
Other   |            | 9.82e-07   |            |       |100.00

Nlocal:             18 ave          18 max          18 min
Histogram: 1 0 0 0 0 0 0 0 0 0
Nghost:           1529 ave        1529 max        1529 min
Histogram: 1 0 0 0 0 0 0 0 0 0
Neighs:              0 ave           0 max           0 min
Histogram: 1 0 0 0 0 0 0 0 0 0
FullNghs:         6156 ave        6156 max        6156 min
Histogram: 1 0 0 0 0 0 0 0 0 0

Total # of neighbors = 6156
Ave neighs/atom = 342
Neighbor list builds = 0
Dangerous builds = 0
set atom * x 0.0 y 0.0 z 0.0
Setting atom values ...
  18 settings made for x
  18 settings made for y
  18 settings made for z
change_box all     x final 0 2.5408088174368637 y final 0 13.305940220025047 z final 0 11.389248711924967      xy final -0.46960051315041795 xz final -0.4798123726776131 yz final 0.5798226498229553 units box
Changing box ...
  triclinic box = (0 0 0) to (2.5408088 13.30594 11.389249) with tilt (-0.46960051 -0.47981237 0.57982265)
  triclinic box = (0 0 0) to (2.5408088 13.30594 11.389249) with tilt (-0.46960051 -0.47981237 0.57982265)
  triclinic box = (0 0 0) to (2.5408088 13.30594 11.389249) with tilt (-0.46960051 -0.47981237 0.57982265)
  triclinic box = (0 0 0) to (2.5408088 13.30594 11.389249) with tilt (-0.46960051 -0.47981237 0.57982265)
  triclinic box = (0 0 0) to (2.5408088 13.30594 11.389249) with tilt (-0.46960051 -0.47981237 0.57982265)
  triclinic box = (0 0 0) to (2.5408088 13.30594 11.389249) with tilt (-0.46960051 -0.47981237 0.57982265)
echo none
run 0
WARNING: No fixes with time integration, atoms won't move (src/src/verlet.cpp:60)
Per MPI rank memory allocation (min/avg/max) = 3.87 | 3.87 | 3.87 Mbytes
    PotEng          Pxx           E_mol          E_coul    
-76.499107      6413.8963      0              0            
Loop time of 1.02e-06 on 1 procs for 0 steps with 18 atoms

490.2% CPU use with 1 MPI tasks x 1 OpenMP threads

MPI task timing breakdown:
Section |  min time  |  avg time  |  max time  |%varavg| %total
---------------------------------------------------------------
Pair    | 0          | 0          | 0          |   0.0 |  0.00
Neigh   | 0          | 0          | 0          |   0.0 |  0.00
Comm    | 0          | 0          | 0          |   0.0 |  0.00
Output  | 0          | 0          | 0          |   0.0 |  0.00
Modify  | 0          | 0          | 0          |   0.0 |  0.00
Other   |            | 1.02e-06   |            |       |100.00

Nlocal:             18 ave          18 max          18 min
Histogram: 1 0 0 0 0 0 0 0 0 0
Nghost:           1529 ave        1529 max        1529 min
Histogram: 1 0 0 0 0 0 0 0 0 0
Neighs:              0 ave           0 max           0 min
Histogram: 1 0 0 0 0 0 0 0 0 0
FullNghs:         6156 ave        6156 max        6156 min
Histogram: 1 0 0 0 0 0 0 0 0 0

Total # of neighbors = 6156
Ave neighs/atom = 342
Neighbor list builds = 0
Dangerous builds = 0
set atom * x 0.0 y 0.0 z 0.0
Setting atom values ...
  18 settings made for x
  18 settings made for y
  18 settings made for z
change_box all     x final 0 2.539197362469255 y final 0 13.230888251274877 z final 0 11.283523532906885      xy final -0.31698897950648713 xz final -0.43508241387095037 yz final 0.6087717800310791 units box
Changing box ...
  triclinic box = (0 0 0) to (2.5391974 13.30594 11.389249) with tilt (-0.46960051 -0.47981237 0.57982265)
  triclinic box = (0 0 0) to (2.5391974 13.230888 11.389249) with tilt (-0.46960051 -0.47981237 0.57982265)
  triclinic box = (0 0 0) to (2.5391974 13.230888 11.283524) with tilt (-0.46960051 -0.47981237 0.57982265)
  triclinic box = (0 0 0) to (2.5391974 13.230888 11.283524) with tilt (-0.31698898 -0.47981237 0.57982265)
  triclinic box = (0 0 0) to (2.5391974 13.230888 11.283524) with tilt (-0.31698898 -0.43508241 0.57982265)
  triclinic box = (0 0 0) to (2.5391974 13.230888 11.283524) with tilt (-0.31698898 -0.43508241 0.60877178)
echo none
run 0
WARNING: No fixes with time integration, atoms won't move (src/src/verlet.cpp:60)
Per MPI rank memory allocation (min/avg/max) = 3.87 | 3.87 | 3.87 Mbytes
    PotEng          Pxx           E_mol          E_coul    
-76.549701      4557.7082      0              0            
Loop time of 9.97e-07 on 1 procs for 0 steps with 18 atoms

802.4% CPU use with 1 MPI tasks x 1 OpenMP threads

MPI task timing breakdown:
Section |  min time  |  avg time  |  max time  |%varavg| %total
---------------------------------------------------------------
Pair    | 0          | 0          | 0          |   0.0 |  0.00
Neigh   | 0          | 0          | 0          |   0.0 |  0.00
Comm    | 0          | 0          | 0          |   0.0 |  0.00
Output  | 0          | 0          | 0          |   0.0 |  0.00
Modify  | 0          | 0          | 0          |   0.0 |  0.00
Other   |            | 9.97e-07   |            |       |100.00

Nlocal:             18 ave          18 max          18 min
Histogram: 1 0 0 0 0 0 0 0 0 0
Nghost:           1529 ave        1529 max        1529 min
Histogram: 1 0 0 0 0 0 0 0 0 0
Neighs:              0 ave           0 max           0 min
Histogram: 1 0 0 0 0 0 0 0 0 0
FullNghs:         6258 ave        6258 max        6258 min
Histogram: 1 0 0 0 0 0 0 0 0 0

Total # of neighbors = 6258
Ave neighs/atom = 347.66667
Neighbor list builds = 0
Dangerous builds = 0
set atom * x 0.0 y 0.0 z 0.0
Setting atom values ...
  18 settings made for x
  18 settings made for y
  18 settings made for z
change_box all     x final 0 2.5391973624692556 y final 0 13.23088825127488 z final 0 11.283523532906885      xy final -0.31698897950648736 xz final -0.43508241387095475 yz final 0.6087717800310758 units box
Changing box ...
  triclinic box = (0 0 0) to (2.5391974 13.230888 11.283524) with tilt (-0.31698898 -0.43508241 0.60877178)
  triclinic box = (0 0 0) to (2.5391974 13.230888 11.283524) with tilt (-0.31698898 -0.43508241 0.60877178)
  triclinic box = (0 0 0) to (2.5391974 13.230888 11.283524) with tilt (-0.31698898 -0.43508241 0.60877178)
  triclinic box = (0 0 0) to (2.5391974 13.230888 11.283524) with tilt (-0.31698898 -0.43508241 0.60877178)
  triclinic box = (0 0 0) to (2.5391974 13.230888 11.283524) with tilt (-0.31698898 -0.43508241 0.60877178)
  triclinic box = (0 0 0) to (2.5391974 13.230888 11.283524) with tilt (-0.31698898 -0.43508241 0.60877178)
echo none
run 0
WARNING: No fixes with time integration, atoms won't move (src/src/verlet.cpp:60)
Per MPI rank memory allocation (min/avg/max) = 3.87 | 3.87 | 3.87 Mbytes
    PotEng          Pxx           E_mol          E_coul    
-76.549701      4557.7082      0              0            
Loop time of 1.001e-06 on 1 procs for 0 steps with 18 atoms

1398.6% CPU use with 1 MPI tasks x 1 OpenMP threads

MPI task timing breakdown:
Section |  min time  |  avg time  |  max time  |%varavg| %total
---------------------------------------------------------------
Pair    | 0          | 0          | 0          |   0.0 |  0.00
Neigh   | 0          | 0          | 0          |   0.0 |  0.00
Comm    | 0          | 0          | 0          |   0.0 |  0.00
Output  | 0          | 0          | 0          |   0.0 |  0.00
Modify  | 0          | 0          | 0          |   0.0 |  0.00
Other   |            | 1.001e-06  |            |       |100.00

Nlocal:             18 ave          18 max          18 min
Histogram: 1 0 0 0 0 0 0 0 0 0
Nghost:           1529 ave        1529 max        1529 min
Histogram: 1 0 0 0 0 0 0 0 0 0
Neighs:              0 ave           0 max           0 min
Histogram: 1 0 0 0 0 0 0 0 0 0
FullNghs:         6258 ave        6258 max        6258 min
Histogram: 1 0 0 0 0 0 0 0 0 0

Total # of neighbors = 6258
Ave neighs/atom = 347.66667
Neighbor list builds = 0
Dangerous builds = 0
set atom * x 0.0 y 0.0 z 0.0
Setting atom values ...
  18 settings made for x
  18 settings made for y
  18 settings made for z
change_box all     x final 0 2.553503593919443 y final 0 13.403231872301845 z final 0 11.349132610778586      xy final -0.6876376271587092 xz final -0.2869307384086835 yz final 0.5578844671591429 units box
Changing box ...
  triclinic box = (0 0 0) to (2.5535036 13.230888 11.283524) with tilt (-0.31698898 -0.43508241 0.60877178)
  triclinic box = (0 0 0) to (2.5535036 13.403232 11.283524) with tilt (-0.31698898 -0.43508241 0.60877178)
  triclinic box = (0 0 0) to (2.5535036 13.403232 11.349133) with tilt (-0.31698898 -0.43508241 0.60877178)
  triclinic box = (0 0 0) to (2.5535036 13.403232 11.349133) with tilt (-0.68763763 -0.43508241 0.60877178)
  triclinic box = (0 0 0) to (2.5535036 13.403232 11.349133) with tilt (-0.68763763 -0.28693074 0.60877178)
  triclinic box = (0 0 0) to (2.5535036 13.403232 11.349133) with tilt (-0.68763763 -0.28693074 0.55788447)
echo none
run 0
WARNING: No fixes with time integration, atoms won't move (src/src/verlet.cpp:60)
Per MPI rank memory allocation (min/avg/max) = 3.87 | 3.87 | 3.87 Mbytes
    PotEng          Pxx           E_mol          E_coul    
-76.57294      -3559.0036      0              0            
Loop time of 1.017e-06 on 1 procs for 0 steps with 18 atoms

688.3% CPU use with 1 MPI tasks x 1 OpenMP threads

MPI task timing breakdown:
Section |  min time  |  avg time  |  max time  |%varavg| %total
---------------------------------------------------------------
Pair    | 0          | 0          | 0          |   0.0 |  0.00
Neigh   | 0          | 0          | 0          |   0.0 |  0.00
Comm    | 0          | 0          | 0          |   0.0 |  0.00
Output  | 0          | 0          | 0          |   0.0 |  0.00
Modify  | 0          | 0          | 0          |   0.0 |  0.00
Other   |            | 1.017e-06  |            |       |100.00

Nlocal:             18 ave          18 max          18 min
Histogram: 1 0 0 0 0 0 0 0 0 0
Nghost:           1529 ave        1529 max        1529 min
Histogram: 1 0 0 0 0 0 0 0 0 0
Neighs:              0 ave           0 max           0 min
Histogram: 1 0 0 0 0 0 0 0 0 0
FullNghs:         6116 ave        6116 max        6116 min
Histogram: 1 0 0 0 0 0 0 0 0 0

Total # of neighbors = 6116
Ave neighs/atom = 339.77778
Neighbor list builds = 0
Dangerous builds = 0
set atom * x 0.0 y 0.0 z 0.0
Setting atom values ...
  18 settings made for x
  18 settings made for y
  18 settings made for z
change_box all     x final 0 2.5477019087727233 y final 0 13.335515356485956 z final 0 11.323339254694018      xy final -0.540043517150797 xz final -0.3457504901590777 yz final 0.5775431915640946 units box
Changing box ...
  triclinic box = (0 0 0) to (2.5477019 13.403232 11.349133) with tilt (-0.68763763 -0.28693074 0.55788447)
  triclinic box = (0 0 0) to (2.5477019 13.335515 11.349133) with tilt (-0.68763763 -0.28693074 0.55788447)
  triclinic box = (0 0 0) to (2.5477019 13.335515 11.323339) with tilt (-0.68763763 -0.28693074 0.55788447)
  triclinic box = (0 0 0) to (2.5477019 13.335515 11.323339) with tilt (-0.54004352 -0.28693074 0.55788447)
  triclinic box = (0 0 0) to (2.5477019 13.335515 11.323339) with tilt (-0.54004352 -0.34575049 0.55788447)
  triclinic box = (0 0 0) to (2.5477019 13.335515 11.323339) with tilt (-0.54004352 -0.34575049 0.57754319)
echo none
run 0
WARNING: No fixes with time integration, atoms won't move (src/src/verlet.cpp:60)
Per MPI rank memory allocation (min/avg/max) = 3.87 | 3.87 | 3.87 Mbytes
    PotEng          Pxx           E_mol          E_coul    
-76.590026     -494.79645      0              0            
Loop time of 1.014e-06 on 1 procs for 0 steps with 18 atoms

789.0% CPU use with 1 MPI tasks x 1 OpenMP threads

MPI task timing breakdown:
Section |  min time  |  avg time  |  max time  |%varavg| %total
---------------------------------------------------------------
Pair    | 0          | 0          | 0          |   0.0 |  0.00
Neigh   | 0          | 0          | 0          |   0.0 |  0.00
Comm    | 0          | 0          | 0          |   0.0 |  0.00
Output  | 0          | 0          | 0          |   0.0 |  0.00
Modify  | 0          | 0          | 0          |   0.0 |  0.00
Other   |            | 1.014e-06  |            |       |100.00

Nlocal:             18 ave          18 max          18 min
Histogram: 1 0 0 0 0 0 0 0 0 0
Nghost:           1529 ave        1529 max        1529 min
Histogram: 1 0 0 0 0 0 0 0 0 0
Neighs:              0 ave           0 max           0 min
Histogram: 1 0 0 0 0 0 0 0 0 0
FullNghs:         6158 ave        6158 max        6158 min
Histogram: 1 0 0 0 0 0 0 0 0 0

Total # of neighbors = 6158
Ave neighs/atom = 342.11111
Neighbor list builds = 0
Dangerous builds = 0
set atom * x 0.0 y 0.0 z 0.0
Setting atom values ...
  18 settings made for x
  18 settings made for y
  18 settings made for z
change_box all     x final 0 2.547701908772724 y final 0 13.335515356485955 z final 0 11.323339254694016      xy final -0.5400435171507905 xz final -0.3457504901590904 yz final 0.5775431915640883 units box
Changing box ...
  triclinic box = (0 0 0) to (2.5477019 13.335515 11.323339) with tilt (-0.54004352 -0.34575049 0.57754319)
  triclinic box = (0 0 0) to (2.5477019 13.335515 11.323339) with tilt (-0.54004352 -0.34575049 0.57754319)
  triclinic box = (0 0 0) to (2.5477019 13.335515 11.323339) with tilt (-0.54004352 -0.34575049 0.57754319)
  triclinic box = (0 0 0) to (2.5477019 13.335515 11.323339) with tilt (-0.54004352 -0.34575049 0.57754319)
  triclinic box = (0 0 0) to (2.5477019 13.335515 11.323339) with tilt (-0.54004352 -0.34575049 0.57754319)
  triclinic box = (0 0 0) to (2.5477019 13.335515 11.323339) with tilt (-0.54004352 -0.34575049 0.57754319)
echo none
run 0
WARNING: No fixes with time integration, atoms won't move (src/src/verlet.cpp:60)
Per MPI rank memory allocation (min/avg/max) = 3.87 | 3.87 | 3.87 Mbytes
    PotEng          Pxx           E_mol          E_coul    
-76.590026     -494.79645      0              0            
Loop time of 9.24e-07 on 1 procs for 0 steps with 18 atoms

432.9% CPU use with 1 MPI tasks x 1 OpenMP threads

MPI task timing breakdown:
Section |  min time  |  avg time  |  max time  |%varavg| %total
---------------------------------------------------------------
Pair    | 0          | 0          | 0          |   0.0 |  0.00
Neigh   | 0          | 0          | 0          |   0.0 |  0.00
Comm    | 0          | 0          | 0          |   0.0 |  0.00
Output  | 0          | 0          | 0          |   0.0 |  0.00
Modify  | 0          | 0          | 0          |   0.0 |  0.00
Other   |            | 9.24e-07   |            |       |100.00

Nlocal:             18 ave          18 max          18 min
Histogram: 1 0 0 0 0 0 0 0 0 0
Nghost:           1529 ave        1529 max        1529 min
Histogram: 1 0 0 0 0 0 0 0 0 0
Neighs:              0 ave           0 max           0 min
Histogram: 1 0 0 0 0 0 0 0 0 0
FullNghs:         6158 ave        6158 max        6158 min
Histogram: 1 0 0 0 0 0 0 0 0 0

Total # of neighbors = 6158
Ave neighs/atom = 342.11111
Neighbor list builds = 0
Dangerous builds = 0
set atom * x 0.0 y 0.0 z 0.0
Setting atom values ...
  18 settings made for x
  18 settings made for y
  18 settings made for z
change_box all     x final 0 2.5433860082386577 y final 0 13.378309035336892 z final 0 11.336684348175963      xy final -0.502904524588464 xz final -0.3735385146034359 yz final 0.6826203444427351 units box
Changing box ...
  triclinic box = (0 0 0) to (2.543386 13.335515 11.323339) with tilt (-0.54004352 -0.34575049 0.57754319)
  triclinic box = (0 0 0) to (2.543386 13.378309 11.323339) with tilt (-0.54004352 -0.34575049 0.57754319)
  triclinic box = (0 0 0) to (2.543386 13.378309 11.336684) with tilt (-0.54004352 -0.34575049 0.57754319)
  triclinic box = (0 0 0) to (2.543386 13.378309 11.336684) with tilt (-0.50290452 -0.34575049 0.57754319)
  triclinic box = (0 0 0) to (2.543386 13.378309 11.336684) with tilt (-0.50290452 -0.37353851 0.57754319)
  triclinic box = (0 0 0) to (2.543386 13.378309 11.336684) with tilt (-0.50290452 -0.37353851 0.68262034)
echo none
run 0
WARNING: No fixes with time integration, atoms won't move (src/src/verlet.cpp:60)
Per MPI rank memory allocation (min/avg/max) = 3.87 | 3.87 | 3.87 Mbytes
    PotEng          Pxx           E_mol          E_coul    
-76.602589      975.55684      0              0            
Loop time of 9.2e-07 on 1 procs for 0 steps with 18 atoms

434.8% CPU use with 1 MPI tasks x 1 OpenMP threads

MPI task timing breakdown:
Section |  min time  |  avg time  |  max time  |%varavg| %total
---------------------------------------------------------------
Pair    | 0          | 0          | 0          |   0.0 |  0.00
Neigh   | 0          | 0          | 0          |   0.0 |  0.00
Comm    | 0          | 0          | 0          |   0.0 |  0.00
Output  | 0          | 0          | 0          |   0.0 |  0.00
Modify  | 0          | 0          | 0          |   0.0 |  0.00
Other   |            | 9.2e-07    |            |       |100.00

Nlocal:             18 ave          18 max          18 min
Histogram: 1 0 0 0 0 0 0 0 0 0
Nghost:           1529 ave        1529 max        1529 min
Histogram: 1 0 0 0 0 0 0 0 0 0
Neighs:              0 ave           0 max           0 min
Histogram: 1 0 0 0 0 0 0 0 0 0
FullNghs:         6142 ave        6142 max        6142 min
Histogram: 1 0 0 0 0 0 0 0 0 0

Total # of neighbors = 6142
Ave neighs/atom = 341.22222
Neighbor list builds = 0
Dangerous builds = 0
set atom * x 0.0 y 0.0 z 0.0
Setting atom values ...
  18 settings made for x
  18 settings made for y
  18 settings made for z
change_box all     x final 0 2.543386008238658 y final 0 13.378309035336892 z final 0 11.336684348175961      xy final -0.50290452458847 xz final -0.3735385146034358 yz final 0.6826203444427401 units box
Changing box ...
  triclinic box = (0 0 0) to (2.543386 13.378309 11.336684) with tilt (-0.50290452 -0.37353851 0.68262034)
  triclinic box = (0 0 0) to (2.543386 13.378309 11.336684) with tilt (-0.50290452 -0.37353851 0.68262034)
  triclinic box = (0 0 0) to (2.543386 13.378309 11.336684) with tilt (-0.50290452 -0.37353851 0.68262034)
  triclinic box = (0 0 0) to (2.543386 13.378309 11.336684) with tilt (-0.50290452 -0.37353851 0.68262034)
  triclinic box = (0 0 0) to (2.543386 13.378309 11.336684) with tilt (-0.50290452 -0.37353851 0.68262034)
  triclinic box = (0 0 0) to (2.543386 13.378309 11.336684) with tilt (-0.50290452 -0.37353851 0.68262034)
echo none
run 0
WARNING: No fixes with time integration, atoms won't move (src/src/verlet.cpp:60)
Per MPI rank memory allocation (min/avg/max) = 3.87 | 3.87 | 3.87 Mbytes
    PotEng          Pxx           E_mol          E_coul    
-76.602589      975.55684      0              0            
Loop time of 9.14e-07 on 1 procs for 0 steps with 18 atoms

765.9% CPU use with 1 MPI tasks x 1 OpenMP threads

MPI task timing breakdown:
Section |  min time  |  avg time  |  max time  |%varavg| %total
---------------------------------------------------------------
Pair    | 0          | 0          | 0          |   0.0 |  0.00
Neigh   | 0          | 0          | 0          |   0.0 |  0.00
Comm    | 0          | 0          | 0          |   0.0 |  0.00
Output  | 0          | 0          | 0          |   0.0 |  0.00
Modify  | 0          | 0          | 0          |   0.0 |  0.00
Other   |            | 9.14e-07   |            |       |100.00

Nlocal:             18 ave          18 max          18 min
Histogram: 1 0 0 0 0 0 0 0 0 0
Nghost:           1529 ave        1529 max        1529 min
Histogram: 1 0 0 0 0 0 0 0 0 0
Neighs:              0 ave           0 max           0 min
Histogram: 1 0 0 0 0 0 0 0 0 0
FullNghs:         6142 ave        6142 max        6142 min
Histogram: 1 0 0 0 0 0 0 0 0 0

Total # of neighbors = 6142
Ave neighs/atom = 341.22222
Neighbor list builds = 0
Dangerous builds = 0
set atom * x 0.0 y 0.0 z 0.0
Setting atom values ...
  18 settings made for x
  18 settings made for y
  18 settings made for z
change_box all     x final 0 2.5503680992877147 y final 0 13.312775429847862 z final 0 11.358317218714648      xy final -0.523952629464104 xz final -0.39516001461916694 yz final 0.6580508918753217 units box
Changing box ...
  triclinic box = (0 0 0) to (2.5503681 13.378309 11.336684) with tilt (-0.50290452 -0.37353851 0.68262034)
  triclinic box = (0 0 0) to (2.5503681 13.312775 11.336684) with tilt (-0.50290452 -0.37353851 0.68262034)
  triclinic box = (0 0 0) to (2.5503681 13.312775 11.358317) with tilt (-0.50290452 -0.37353851 0.68262034)
  triclinic box = (0 0 0) to (2.5503681 13.312775 11.358317) with tilt (-0.52395263 -0.37353851 0.68262034)
  triclinic box = (0 0 0) to (2.5503681 13.312775 11.358317) with tilt (-0.52395263 -0.39516001 0.68262034)
  triclinic box = (0 0 0) to (2.5503681 13.312775 11.358317) with tilt (-0.52395263 -0.39516001 0.65805089)
echo none
run 0
WARNING: No fixes with time integration, atoms won't move (src/src/verlet.cpp:60)
Per MPI rank memory allocation (min/avg/max) = 3.87 | 3.87 | 3.87 Mbytes
    PotEng          Pxx           E_mol          E_coul    
-76.605354     -1836.3649      0              0            
Loop time of 1e-06 on 1 procs for 0 steps with 18 atoms

600.0% CPU use with 1 MPI tasks x 1 OpenMP threads

MPI task timing breakdown:
Section |  min time  |  avg time  |  max time  |%varavg| %total
---------------------------------------------------------------
Pair    | 0          | 0          | 0          |   0.0 |  0.00
Neigh   | 0          | 0          | 0          |   0.0 |  0.00
Comm    | 0          | 0          | 0          |   0.0 |  0.00
Output  | 0          | 0          | 0          |   0.0 |  0.00
Modify  | 0          | 0          | 0          |   0.0 |  0.00
Other   |            | 1e-06      |            |       |100.00

Nlocal:             18 ave          18 max          18 min
Histogram: 1 0 0 0 0 0 0 0 0 0
Nghost:           1529 ave        1529 max        1529 min
Histogram: 1 0 0 0 0 0 0 0 0 0
Neighs:              0 ave           0 max           0 min
Histogram: 1 0 0 0 0 0 0 0 0 0
FullNghs:         6142 ave        6142 max        6142 min
Histogram: 1 0 0 0 0 0 0 0 0 0

Total # of neighbors = 6142
Ave neighs/atom = 341.22222
Neighbor list builds = 0
Dangerous builds = 0
set atom * x 0.0 y 0.0 z 0.0
Setting atom values ...
  18 settings made for x
  18 settings made for y
  18 settings made for z
change_box all     x final 0 2.550368099287716 y final 0 13.312775429847868 z final 0 11.358317218714651      xy final -0.5239526294641123 xz final -0.39516001461916656 yz final 0.658050891875311 units box
Changing box ...
  triclinic box = (0 0 0) to (2.5503681 13.312775 11.358317) with tilt (-0.52395263 -0.39516001 0.65805089)
  triclinic box = (0 0 0) to (2.5503681 13.312775 11.358317) with tilt (-0.52395263 -0.39516001 0.65805089)
  triclinic box = (0 0 0) to (2.5503681 13.312775 11.358317) with tilt (-0.52395263 -0.39516001 0.65805089)
  triclinic box = (0 0 0) to (2.5503681 13.312775 11.358317) with tilt (-0.52395263 -0.39516001 0.65805089)
  triclinic box = (0 0 0) to (2.5503681 13.312775 11.358317) with tilt (-0.52395263 -0.39516001 0.65805089)
  triclinic box = (0 0 0) to (2.5503681 13.312775 11.358317) with tilt (-0.52395263 -0.39516001 0.65805089)
echo none
run 0
WARNING: No fixes with time integration, atoms won't move (src/src/verlet.cpp:60)
Per MPI rank memory allocation (min/avg/max) = 3.87 | 3.87 | 3.87 Mbytes
    PotEng          Pxx           E_mol          E_coul    
-76.605354     -1836.3649      0              0            
Loop time of 9.16e-07 on 1 procs for 0 steps with 18 atoms

873.4% CPU use with 1 MPI tasks x 1 OpenMP threads

MPI task timing breakdown:
Section |  min time  |  avg time  |  max time  |%varavg| %total
---------------------------------------------------------------
Pair    | 0          | 0          | 0          |   0.0 |  0.00
Neigh   | 0          | 0          | 0          |   0.0 |  0.00
Comm    | 0          | 0          | 0          |   0.0 |  0.00
Output  | 0          | 0          | 0          |   0.0 |  0.00
Modify  | 0          | 0          | 0          |   0.0 |  0.00
Other   |            | 9.16e-07   |            |       |100.00

Nlocal:             18 ave          18 max          18 min
Histogram: 1 0 0 0 0 0 0 0 0 0
Nghost:           1529 ave        1529 max        1529 min
Histogram: 1 0 0 0 0 0 0 0 0 0
Neighs:              0 ave           0 max           0 min
Histogram: 1 0 0 0 0 0 0 0 0 0
FullNghs:         6142 ave        6142 max        6142 min
Histogram: 1 0 0 0 0 0 0 0 0 0

Total # of neighbors = 6142
Ave neighs/atom = 341.22222
Neighbor list builds = 0
Dangerous builds = 0
set atom * x 0.0 y 0.0 z 0.0
Setting atom values ...
  18 settings made for x
  18 settings made for y
  18 settings made for z
change_box all     x final 0 2.546558327326973 y final 0 13.341173349525768 z final 0 11.306748912130699      xy final -0.5069262282817352 xz final -0.39846005554665276 yz final 0.6079332839108517 units box
Changing box ...
  triclinic box = (0 0 0) to (2.5465583 13.312775 11.358317) with tilt (-0.52395263 -0.39516001 0.65805089)
  triclinic box = (0 0 0) to (2.5465583 13.341173 11.358317) with tilt (-0.52395263 -0.39516001 0.65805089)
  triclinic box = (0 0 0) to (2.5465583 13.341173 11.306749) with tilt (-0.52395263 -0.39516001 0.65805089)
  triclinic box = (0 0 0) to (2.5465583 13.341173 11.306749) with tilt (-0.50692623 -0.39516001 0.65805089)
  triclinic box = (0 0 0) to (2.5465583 13.341173 11.306749) with tilt (-0.50692623 -0.39846006 0.65805089)
  triclinic box = (0 0 0) to (2.5465583 13.341173 11.306749) with tilt (-0.50692623 -0.39846006 0.60793328)
echo none
run 0
WARNING: No fixes with time integration, atoms won't move (src/src/verlet.cpp:60)
Per MPI rank memory allocation (min/avg/max) = 3.87 | 3.87 | 3.87 Mbytes
    PotEng          Pxx           E_mol          E_coul    
-76.609656      77.555599      0              0            
Loop time of 8.06e-07 on 1 procs for 0 steps with 18 atoms

744.4% CPU use with 1 MPI tasks x 1 OpenMP threads

MPI task timing breakdown:
Section |  min time  |  avg time  |  max time  |%varavg| %total
---------------------------------------------------------------
Pair    | 0          | 0          | 0          |   0.0 |  0.00
Neigh   | 0          | 0          | 0          |   0.0 |  0.00
Comm    | 0          | 0          | 0          |   0.0 |  0.00
Output  | 0          | 0          | 0          |   0.0 |  0.00
Modify  | 0          | 0          | 0          |   0.0 |  0.00
Other   |            | 8.06e-07   |            |       |100.00

Nlocal:             18 ave          18 max          18 min
Histogram: 1 0 0 0 0 0 0 0 0 0
Nghost:           1529 ave        1529 max        1529 min
Histogram: 1 0 0 0 0 0 0 0 0 0
Neighs:              0 ave           0 max           0 min
Histogram: 1 0 0 0 0 0 0 0 0 0
FullNghs:         6174 ave        6174 max        6174 min
Histogram: 1 0 0 0 0 0 0 0 0 0

Total # of neighbors = 6174
Ave neighs/atom = 343
Neighbor list builds = 0
Dangerous builds = 0
set atom * x 0.0 y 0.0 z 0.0
Setting atom values ...
  18 settings made for x
  18 settings made for y
  18 settings made for z
change_box all     x final 0 2.546558327326974 y final 0 13.34117334952577 z final 0 11.3067489121307      xy final -0.5069262282817366 xz final -0.3984600555466527 yz final 0.6079332839108574 units box
Changing box ...
  triclinic box = (0 0 0) to (2.5465583 13.341173 11.306749) with tilt (-0.50692623 -0.39846006 0.60793328)
  triclinic box = (0 0 0) to (2.5465583 13.341173 11.306749) with tilt (-0.50692623 -0.39846006 0.60793328)
  triclinic box = (0 0 0) to (2.5465583 13.341173 11.306749) with tilt (-0.50692623 -0.39846006 0.60793328)
  triclinic box = (0 0 0) to (2.5465583 13.341173 11.306749) with tilt (-0.50692623 -0.39846006 0.60793328)
  triclinic box = (0 0 0) to (2.5465583 13.341173 11.306749) with tilt (-0.50692623 -0.39846006 0.60793328)
  triclinic box = (0 0 0) to (2.5465583 13.341173 11.306749) with tilt (-0.50692623 -0.39846006 0.60793328)
echo none
run 0
WARNING: No fixes with time integration, atoms won't move (src/src/verlet.cpp:60)
Per MPI rank memory allocation (min/avg/max) = 3.87 | 3.87 | 3.87 Mbytes
    PotEng          Pxx           E_mol          E_coul    
-76.609656      77.555599      0              0            
Loop time of 9.01e-07 on 1 procs for 0 steps with 18 atoms

554.9% CPU use with 1 MPI tasks x 1 OpenMP threads

MPI task timing breakdown:
Section |  min time  |  avg time  |  max time  |%varavg| %total
---------------------------------------------------------------
Pair    | 0          | 0          | 0          |   0.0 |  0.00
Neigh   | 0          | 0          | 0          |   0.0 |  0.00
Comm    | 0          | 0          | 0          |   0.0 |  0.00
Output  | 0          | 0          | 0          |   0.0 |  0.00
Modify  | 0          | 0          | 0          |   0.0 |  0.00
Other   |            | 9.01e-07   |            |       |100.00

Nlocal:             18 ave          18 max          18 min
Histogram: 1 0 0 0 0 0 0 0 0 0
Nghost:           1529 ave        1529 max        1529 min
Histogram: 1 0 0 0 0 0 0 0 0 0
Neighs:              0 ave           0 max           0 min
Histogram: 1 0 0 0 0 0 0 0 0 0
FullNghs:         6174 ave        6174 max        6174 min
Histogram: 1 0 0 0 0 0 0 0 0 0

Total # of neighbors = 6174
Ave neighs/atom = 343
Neighbor list builds = 0
Dangerous builds = 0
set atom * x 0.0 y 0.0 z 0.0
Setting atom values ...
  18 settings made for x
  18 settings made for y
  18 settings made for z
change_box all     x final 0 2.5446684635045798 y final 0 13.34512517647184 z final 0 11.314040674179205      xy final -0.5008695538983683 xz final -0.38211172476255056 yz final 0.6308197574696316 units box
Changing box ...
  triclinic box = (0 0 0) to (2.5446685 13.341173 11.306749) with tilt (-0.50692623 -0.39846006 0.60793328)
  triclinic box = (0 0 0) to (2.5446685 13.345125 11.306749) with tilt (-0.50692623 -0.39846006 0.60793328)
  triclinic box = (0 0 0) to (2.5446685 13.345125 11.314041) with tilt (-0.50692623 -0.39846006 0.60793328)
  triclinic box = (0 0 0) to (2.5446685 13.345125 11.314041) with tilt (-0.50086955 -0.39846006 0.60793328)
  triclinic box = (0 0 0) to (2.5446685 13.345125 11.314041) with tilt (-0.50086955 -0.38211172 0.60793328)
  triclinic box = (0 0 0) to (2.5446685 13.345125 11.314041) with tilt (-0.50086955 -0.38211172 0.63081976)
echo none
run 0
WARNING: No fixes with time integration, atoms won't move (src/src/verlet.cpp:60)
Per MPI rank memory allocation (min/avg/max) = 3.87 | 3.87 | 3.87 Mbytes
    PotEng          Pxx           E_mol          E_coul    
-76.611146      406.99566      0              0            
Loop time of 8.01e-07 on 1 procs for 0 steps with 18 atoms

749.1% CPU use with 1 MPI tasks x 1 OpenMP threads

MPI task timing breakdown:
Section |  min time  |  avg time  |  max time  |%varavg| %total
---------------------------------------------------------------
Pair    | 0          | 0          | 0          |   0.0 |  0.00
Neigh   | 0          | 0          | 0          |   0.0 |  0.00
Comm    | 0          | 0          | 0          |   0.0 |  0.00
Output  | 0          | 0          | 0          |   0.0 |  0.00
Modify  | 0          | 0          | 0          |   0.0 |  0.00
Other   |            | 8.01e-07   |            |       |100.00

Nlocal:             18 ave          18 max          18 min
Histogram: 1 0 0 0 0 0 0 0 0 0
Nghost:           1529 ave        1529 max        1529 min
Histogram: 1 0 0 0 0 0 0 0 0 0
Neighs:              0 ave           0 max           0 min
Histogram: 1 0 0 0 0 0 0 0 0 0
FullNghs:         6172 ave        6172 max        6172 min
Histogram: 1 0 0 0 0 0 0 0 0 0

Total # of neighbors = 6172
Ave neighs/atom = 342.88889
Neighbor list builds = 0
Dangerous builds = 0
set atom * x 0.0 y 0.0 z 0.0
Setting atom values ...
  18 settings made for x
  18 settings made for y
  18 settings made for z
change_box all     x final 0 2.54466846350458 y final 0 13.345125176471846 z final 0 11.314040674179205      xy final -0.5008695538983741 xz final -0.38211172476254723 yz final 0.6308197574696258 units box
Changing box ...
  triclinic box = (0 0 0) to (2.5446685 13.345125 11.314041) with tilt (-0.50086955 -0.38211172 0.63081976)
  triclinic box = (0 0 0) to (2.5446685 13.345125 11.314041) with tilt (-0.50086955 -0.38211172 0.63081976)
  triclinic box = (0 0 0) to (2.5446685 13.345125 11.314041) with tilt (-0.50086955 -0.38211172 0.63081976)
  triclinic box = (0 0 0) to (2.5446685 13.345125 11.314041) with tilt (-0.50086955 -0.38211172 0.63081976)
  triclinic box = (0 0 0) to (2.5446685 13.345125 11.314041) with tilt (-0.50086955 -0.38211172 0.63081976)
  triclinic box = (0 0 0) to (2.5446685 13.345125 11.314041) with tilt (-0.50086955 -0.38211172 0.63081976)
echo none
run 0
WARNING: No fixes with time integration, atoms won't move (src/src/verlet.cpp:60)
Per MPI rank memory allocation (min/avg/max) = 3.87 | 3.87 | 3.87 Mbytes
    PotEng          Pxx           E_mol          E_coul    
-76.611146      406.99566      0              0            
Loop time of 8.76e-07 on 1 procs for 0 steps with 18 atoms

456.6% CPU use with 1 MPI tasks x 1 OpenMP threads

MPI task timing breakdown:
Section |  min time  |  avg time  |  max time  |%varavg| %total
---------------------------------------------------------------
Pair    | 0          | 0          | 0          |   0.0 |  0.00
Neigh   | 0          | 0          | 0          |   0.0 |  0.00
Comm    | 0          | 0          | 0          |   0.0 |  0.00
Output  | 0          | 0          | 0          |   0.0 |  0.00
Modify  | 0          | 0          | 0          |   0.0 |  0.00
Other   |            | 8.76e-07   |            |       |100.00

Nlocal:             18 ave          18 max          18 min
Histogram: 1 0 0 0 0 0 0 0 0 0
Nghost:           1529 ave        1529 max        1529 min
Histogram: 1 0 0 0 0 0 0 0 0 0
Neighs:              0 ave           0 max           0 min
Histogram: 1 0 0 0 0 0 0 0 0 0
FullNghs:         6172 ave        6172 max        6172 min
Histogram: 1 0 0 0 0 0 0 0 0 0

Total # of neighbors = 6172
Ave neighs/atom = 342.88889
Neighbor list builds = 0
Dangerous builds = 0
set atom * x 0.0 y 0.0 z 0.0
Setting atom values ...
  18 settings made for x
  18 settings made for y
  18 settings made for z
change_box all     x final 0 2.545993231272363 y final 0 13.339961307305943 z final 0 11.310869090204884      xy final -0.4976356681512905 xz final -0.3835454379041035 yz final 0.6327665761955089 units box
Changing box ...
  triclinic box = (0 0 0) to (2.5459932 13.345125 11.314041) with tilt (-0.50086955 -0.38211172 0.63081976)
  triclinic box = (0 0 0) to (2.5459932 13.339961 11.314041) with tilt (-0.50086955 -0.38211172 0.63081976)
  triclinic box = (0 0 0) to (2.5459932 13.339961 11.310869) with tilt (-0.50086955 -0.38211172 0.63081976)
  triclinic box = (0 0 0) to (2.5459932 13.339961 11.310869) with tilt (-0.49763567 -0.38211172 0.63081976)
  triclinic box = (0 0 0) to (2.5459932 13.339961 11.310869) with tilt (-0.49763567 -0.38354544 0.63081976)
  triclinic box = (0 0 0) to (2.5459932 13.339961 11.310869) with tilt (-0.49763567 -0.38354544 0.63276658)
echo none
run 0
WARNING: No fixes with time integration, atoms won't move (src/src/verlet.cpp:60)
Per MPI rank memory allocation (min/avg/max) = 3.87 | 3.87 | 3.87 Mbytes
    PotEng          Pxx           E_mol          E_coul    
-76.611786     -121.83651      0              0            
Loop time of 7.86e-07 on 1 procs for 0 steps with 18 atoms

763.4% CPU use with 1 MPI tasks x 1 OpenMP threads

MPI task timing breakdown:
Section |  min time  |  avg time  |  max time  |%varavg| %total
---------------------------------------------------------------
Pair    | 0          | 0          | 0          |   0.0 |  0.00
Neigh   | 0          | 0          | 0          |   0.0 |  0.00
[...]
  triclinic box = (0 0 0) to (2.5436673 8.4901394 6.3126447) with tilt (3.8153263 2.5440752 -3.3898259)
  triclinic box = (0 0 0) to (2.5436673 8.4901394 6.3126447) with tilt (3.8153263 2.5440752 -3.3898939)
echo none
run 0
Per MPI rank memory allocation (min/avg/max) = 4.345 | 4.345 | 4.345 Mbytes
    PotEng          Pxx           E_mol          E_coul    
-77.038044      14.1237        0              0            
Loop time of 1.789e-06 on 1 procs for 0 steps with 18 atoms

838.5% CPU use with 1 MPI tasks x 1 OpenMP threads

MPI task timing breakdown:
Section |  min time  |  avg time  |  max time  |%varavg| %total
---------------------------------------------------------------
Pair    | 0          | 0          | 0          |   0.0 |  0.00
Neigh   | 0          | 0          | 0          |   0.0 |  0.00
Comm    | 0          | 0          | 0          |   0.0 |  0.00
Output  | 0          | 0          | 0          |   0.0 |  0.00
Modify  | 0          | 0          | 0          |   0.0 |  0.00
Other   |            | 1.789e-06  |            |       |100.00

Nlocal:             18 ave          18 max          18 min
Histogram: 1 0 0 0 0 0 0 0 0 0
Nghost:           4930 ave        4930 max        4930 min
Histogram: 1 0 0 0 0 0 0 0 0 0
Neighs:              0 ave           0 max           0 min
Histogram: 1 0 0 0 0 0 0 0 0 0
FullNghs:        17940 ave       17940 max       17940 min
Histogram: 1 0 0 0 0 0 0 0 0 0

Total # of neighbors = 17940
Ave neighs/atom = 996.66667
Neighbor list builds = 0
Dangerous builds = 0
set atom * x 0.0 y 0.0 z 0.0
Setting atom values ...
  18 settings made for x
  18 settings made for y
  18 settings made for z
change_box all     x final 0 2.543667343434384 y final 0 8.490139421396773 z final 0 6.312644690368545      xy final 3.8153262910874903 xz final 2.5440752177565016 yz final -3.3898939375466894 units box
Changing box ...
  triclinic box = (0 0 0) to (2.5436673 8.4901394 6.3126447) with tilt (3.8153263 2.5440752 -3.3898939)
  triclinic box = (0 0 0) to (2.5436673 8.4901394 6.3126447) with tilt (3.8153263 2.5440752 -3.3898939)
  triclinic box = (0 0 0) to (2.5436673 8.4901394 6.3126447) with tilt (3.8153263 2.5440752 -3.3898939)
  triclinic box = (0 0 0) to (2.5436673 8.4901394 6.3126447) with tilt (3.8153263 2.5440752 -3.3898939)
  triclinic box = (0 0 0) to (2.5436673 8.4901394 6.3126447) with tilt (3.8153263 2.5440752 -3.3898939)
  triclinic box = (0 0 0) to (2.5436673 8.4901394 6.3126447) with tilt (3.8153263 2.5440752 -3.3898939)
echo none
run 0
Per MPI rank memory allocation (min/avg/max) = 4.345 | 4.345 | 4.345 Mbytes
    PotEng          Pxx           E_mol          E_coul    
-77.038044      14.1237        0              0            
Loop time of 1.191e-06 on 1 procs for 0 steps with 18 atoms

167.9% CPU use with 1 MPI tasks x 1 OpenMP threads

MPI task timing breakdown:
Section |  min time  |  avg time  |  max time  |%varavg| %total
---------------------------------------------------------------
Pair    | 0          | 0          | 0          |   0.0 |  0.00
Neigh   | 0          | 0          | 0          |   0.0 |  0.00
Comm    | 0          | 0          | 0          |   0.0 |  0.00
Output  | 0          | 0          | 0          |   0.0 |  0.00
Modify  | 0          | 0          | 0          |   0.0 |  0.00
Other   |            | 1.191e-06  |            |       |100.00

Nlocal:             18 ave          18 max          18 min
Histogram: 1 0 0 0 0 0 0 0 0 0
Nghost:           4930 ave        4930 max        4930 min
Histogram: 1 0 0 0 0 0 0 0 0 0
Neighs:              0 ave           0 max           0 min
Histogram: 1 0 0 0 0 0 0 0 0 0
FullNghs:        17940 ave       17940 max       17940 min
Histogram: 1 0 0 0 0 0 0 0 0 0

Total # of neighbors = 17940
Ave neighs/atom = 996.66667
Neighbor list builds = 0
Dangerous builds = 0
set atom * x 0.0 y 0.0 z 0.0
Setting atom values ...
  18 settings made for x
  18 settings made for y
  18 settings made for z
change_box all     x final 0 2.543672196310106 y final 0 8.49014331618449 z final 0 6.312810339466557      xy final 3.81532381972992 xz final 2.5438693200939357 yz final -3.3901125577776265 units box
Changing box ...
  triclinic box = (0 0 0) to (2.5436722 8.4901394 6.3126447) with tilt (3.8153263 2.5440752 -3.3898939)
  triclinic box = (0 0 0) to (2.5436722 8.4901433 6.3126447) with tilt (3.8153263 2.5440752 -3.3898939)
  triclinic box = (0 0 0) to (2.5436722 8.4901433 6.3128103) with tilt (3.8153263 2.5440752 -3.3898939)
  triclinic box = (0 0 0) to (2.5436722 8.4901433 6.3128103) with tilt (3.8153238 2.5440752 -3.3898939)
  triclinic box = (0 0 0) to (2.5436722 8.4901433 6.3128103) with tilt (3.8153238 2.5438693 -3.3898939)
  triclinic box = (0 0 0) to (2.5436722 8.4901433 6.3128103) with tilt (3.8153238 2.5438693 -3.3901126)
echo none
run 0
Per MPI rank memory allocation (min/avg/max) = 4.345 | 4.345 | 4.345 Mbytes
    PotEng          Pxx           E_mol          E_coul    
-77.038044      4.3554186      0              0            
Loop time of 1.277e-06 on 1 procs for 0 steps with 18 atoms

939.7% CPU use with 1 MPI tasks x 1 OpenMP threads

MPI task timing breakdown:
Section |  min time  |  avg time  |  max time  |%varavg| %total
---------------------------------------------------------------
Pair    | 0          | 0          | 0          |   0.0 |  0.00
Neigh   | 0          | 0          | 0          |   0.0 |  0.00
Comm    | 0          | 0          | 0          |   0.0 |  0.00
Output  | 0          | 0          | 0          |   0.0 |  0.00
Modify  | 0          | 0          | 0          |   0.0 |  0.00
Other   |            | 1.277e-06  |            |       |100.00

Nlocal:             18 ave          18 max          18 min
Histogram: 1 0 0 0 0 0 0 0 0 0
Nghost:           4930 ave        4930 max        4930 min
Histogram: 1 0 0 0 0 0 0 0 0 0
Neighs:              0 ave           0 max           0 min
Histogram: 1 0 0 0 0 0 0 0 0 0
FullNghs:        17940 ave       17940 max       17940 min
Histogram: 1 0 0 0 0 0 0 0 0 0

Total # of neighbors = 17940
Ave neighs/atom = 996.66667
Neighbor list builds = 0
Dangerous builds = 0
set atom * x 0.0 y 0.0 z 0.0
Setting atom values ...
  18 settings made for x
  18 settings made for y
  18 settings made for z
change_box all     x final 0 2.543672196310105 y final 0 8.490143316184486 z final 0 6.312810339466555      xy final 3.815323819729923 xz final 2.543869320093935 yz final -3.3901125577776328 units box
Changing box ...
  triclinic box = (0 0 0) to (2.5436722 8.4901433 6.3128103) with tilt (3.8153238 2.5438693 -3.3901126)
  triclinic box = (0 0 0) to (2.5436722 8.4901433 6.3128103) with tilt (3.8153238 2.5438693 -3.3901126)
  triclinic box = (0 0 0) to (2.5436722 8.4901433 6.3128103) with tilt (3.8153238 2.5438693 -3.3901126)
  triclinic box = (0 0 0) to (2.5436722 8.4901433 6.3128103) with tilt (3.8153238 2.5438693 -3.3901126)
  triclinic box = (0 0 0) to (2.5436722 8.4901433 6.3128103) with tilt (3.8153238 2.5438693 -3.3901126)
  triclinic box = (0 0 0) to (2.5436722 8.4901433 6.3128103) with tilt (3.8153238 2.5438693 -3.3901126)
echo none
run 0
Per MPI rank memory allocation (min/avg/max) = 4.345 | 4.345 | 4.345 Mbytes
    PotEng          Pxx           E_mol          E_coul    
-77.038044      4.3554186      0              0            
Loop time of 1.188e-06 on 1 procs for 0 steps with 18 atoms

168.4% CPU use with 1 MPI tasks x 1 OpenMP threads

MPI task timing breakdown:
Section |  min time  |  avg time  |  max time  |%varavg| %total
---------------------------------------------------------------
Pair    | 0          | 0          | 0          |   0.0 |  0.00
Neigh   | 0          | 0          | 0          |   0.0 |  0.00
Comm    | 0          | 0          | 0          |   0.0 |  0.00
Output  | 0          | 0          | 0          |   0.0 |  0.00
Modify  | 0          | 0          | 0          |   0.0 |  0.00
Other   |            | 1.188e-06  |            |       |100.00

Nlocal:             18 ave          18 max          18 min
Histogram: 1 0 0 0 0 0 0 0 0 0
Nghost:           4930 ave        4930 max        4930 min
Histogram: 1 0 0 0 0 0 0 0 0 0
Neighs:              0 ave           0 max           0 min
Histogram: 1 0 0 0 0 0 0 0 0 0
FullNghs:        17940 ave       17940 max       17940 min
Histogram: 1 0 0 0 0 0 0 0 0 0

Total # of neighbors = 17940
Ave neighs/atom = 996.66667
Neighbor list builds = 0
Dangerous builds = 0
set atom * x 0.0 y 0.0 z 0.0
Setting atom values ...
  18 settings made for x
  18 settings made for y
  18 settings made for z
change_box all     x final 0 2.5436745141662103 y final 0 8.490121643918554 z final 0 6.312866910485184      xy final 3.8153836195721573 xz final 2.543767180025871 yz final -3.390143471006545 units box
Changing box ...
  triclinic box = (0 0 0) to (2.5436745 8.4901433 6.3128103) with tilt (3.8153238 2.5438693 -3.3901126)
  triclinic box = (0 0 0) to (2.5436745 8.4901216 6.3128103) with tilt (3.8153238 2.5438693 -3.3901126)
  triclinic box = (0 0 0) to (2.5436745 8.4901216 6.3128669) with tilt (3.8153238 2.5438693 -3.3901126)
  triclinic box = (0 0 0) to (2.5436745 8.4901216 6.3128669) with tilt (3.8153836 2.5438693 -3.3901126)
  triclinic box = (0 0 0) to (2.5436745 8.4901216 6.3128669) with tilt (3.8153836 2.5437672 -3.3901126)
  triclinic box = (0 0 0) to (2.5436745 8.4901216 6.3128669) with tilt (3.8153836 2.5437672 -3.3901435)
echo none
run 0
Per MPI rank memory allocation (min/avg/max) = 4.345 | 4.345 | 4.345 Mbytes
    PotEng          Pxx           E_mol          E_coul    
-77.038044     -1.2804908      0              0            
Loop time of 1.444e-06 on 1 procs for 0 steps with 18 atoms

761.8% CPU use with 1 MPI tasks x 1 OpenMP threads

MPI task timing breakdown:
Section |  min time  |  avg time  |  max time  |%varavg| %total
---------------------------------------------------------------
Pair    | 0          | 0          | 0          |   0.0 |  0.00
Neigh   | 0          | 0          | 0          |   0.0 |  0.00
Comm    | 0          | 0          | 0          |   0.0 |  0.00
Output  | 0          | 0          | 0          |   0.0 |  0.00
Modify  | 0          | 0          | 0          |   0.0 |  0.00
Other   |            | 1.444e-06  |            |       |100.00

Nlocal:             18 ave          18 max          18 min
Histogram: 1 0 0 0 0 0 0 0 0 0
Nghost:           4930 ave        4930 max        4930 min
Histogram: 1 0 0 0 0 0 0 0 0 0
Neighs:              0 ave           0 max           0 min
Histogram: 1 0 0 0 0 0 0 0 0 0
FullNghs:        17940 ave       17940 max       17940 min
Histogram: 1 0 0 0 0 0 0 0 0 0

Total # of neighbors = 17940
Ave neighs/atom = 996.66667
Neighbor list builds = 0
Dangerous builds = 0
set atom * x 0.0 y 0.0 z 0.0
Setting atom values ...
  18 settings made for x
  18 settings made for y
  18 settings made for z
change_box all     x final 0 2.5436745141662134 y final 0 8.490121643918553 z final 0 6.312866910485185      xy final 3.8153836195721618 xz final 2.543767180025873 yz final -3.390143471006544 units box
Changing box ...
  triclinic box = (0 0 0) to (2.5436745 8.4901216 6.3128669) with tilt (3.8153836 2.5437672 -3.3901435)
  triclinic box = (0 0 0) to (2.5436745 8.4901216 6.3128669) with tilt (3.8153836 2.5437672 -3.3901435)
  triclinic box = (0 0 0) to (2.5436745 8.4901216 6.3128669) with tilt (3.8153836 2.5437672 -3.3901435)
  triclinic box = (0 0 0) to (2.5436745 8.4901216 6.3128669) with tilt (3.8153836 2.5437672 -3.3901435)
  triclinic box = (0 0 0) to (2.5436745 8.4901216 6.3128669) with tilt (3.8153836 2.5437672 -3.3901435)
  triclinic box = (0 0 0) to (2.5436745 8.4901216 6.3128669) with tilt (3.8153836 2.5437672 -3.3901435)
echo none
run 0
Per MPI rank memory allocation (min/avg/max) = 4.345 | 4.345 | 4.345 Mbytes
    PotEng          Pxx           E_mol          E_coul    
-77.038044     -1.2804908      0              0            
Loop time of 1.467e-06 on 1 procs for 0 steps with 18 atoms

1022.5% CPU use with 1 MPI tasks x 1 OpenMP threads

MPI task timing breakdown:
Section |  min time  |  avg time  |  max time  |%varavg| %total
---------------------------------------------------------------
Pair    | 0          | 0          | 0          |   0.0 |  0.00
Neigh   | 0          | 0          | 0          |   0.0 |  0.00
Comm    | 0          | 0          | 0          |   0.0 |  0.00
Output  | 0          | 0          | 0          |   0.0 |  0.00
Modify  | 0          | 0          | 0          |   0.0 |  0.00
Other   |            | 1.467e-06  |            |       |100.00

Nlocal:             18 ave          18 max          18 min
Histogram: 1 0 0 0 0 0 0 0 0 0
Nghost:           4930 ave        4930 max        4930 min
Histogram: 1 0 0 0 0 0 0 0 0 0
Neighs:              0 ave           0 max           0 min
Histogram: 1 0 0 0 0 0 0 0 0 0
FullNghs:        17940 ave       17940 max       17940 min
Histogram: 1 0 0 0 0 0 0 0 0 0

Total # of neighbors = 17940
Ave neighs/atom = 996.66667
Neighbor list builds = 0
Dangerous builds = 0
set atom * x 0.0 y 0.0 z 0.0
Setting atom values ...
  18 settings made for x
  18 settings made for y
  18 settings made for z
change_box all     x final 0 2.543673510115661 y final 0 8.490099422639691 z final 0 6.312882503987575      xy final 3.8154482092821143 xz final 2.543706531391424 yz final -3.3901511217309026 units box
Changing box ...
  triclinic box = (0 0 0) to (2.5436735 8.4901216 6.3128669) with tilt (3.8153836 2.5437672 -3.3901435)
  triclinic box = (0 0 0) to (2.5436735 8.4900994 6.3128669) with tilt (3.8153836 2.5437672 -3.3901435)
  triclinic box = (0 0 0) to (2.5436735 8.4900994 6.3128825) with tilt (3.8153836 2.5437672 -3.3901435)
  triclinic box = (0 0 0) to (2.5436735 8.4900994 6.3128825) with tilt (3.8154482 2.5437672 -3.3901435)
  triclinic box = (0 0 0) to (2.5436735 8.4900994 6.3128825) with tilt (3.8154482 2.5437065 -3.3901435)
  triclinic box = (0 0 0) to (2.5436735 8.4900994 6.3128825) with tilt (3.8154482 2.5437065 -3.3901511)
echo none
run 0
Per MPI rank memory allocation (min/avg/max) = 4.345 | 4.345 | 4.345 Mbytes
    PotEng          Pxx           E_mol          E_coul    
-77.038044     -1.3666592      0              0            
Loop time of 1.298e-06 on 1 procs for 0 steps with 18 atoms

1309.7% CPU use with 1 MPI tasks x 1 OpenMP threads

MPI task timing breakdown:
Section |  min time  |  avg time  |  max time  |%varavg| %total
---------------------------------------------------------------
Pair    | 0          | 0          | 0          |   0.0 |  0.00
Neigh   | 0          | 0          | 0          |   0.0 |  0.00
Comm    | 0          | 0          | 0          |   0.0 |  0.00
Output  | 0          | 0          | 0          |   0.0 |  0.00
Modify  | 0          | 0          | 0          |   0.0 |  0.00
Other   |            | 1.298e-06  |            |       |100.00

Nlocal:             18 ave          18 max          18 min
Histogram: 1 0 0 0 0 0 0 0 0 0
Nghost:           4930 ave        4930 max        4930 min
Histogram: 1 0 0 0 0 0 0 0 0 0
Neighs:              0 ave           0 max           0 min
Histogram: 1 0 0 0 0 0 0 0 0 0
FullNghs:        17940 ave       17940 max       17940 min
Histogram: 1 0 0 0 0 0 0 0 0 0

Total # of neighbors = 17940
Ave neighs/atom = 996.66667
Neighbor list builds = 0
Dangerous builds = 0
set atom * x 0.0 y 0.0 z 0.0
Setting atom values ...
  18 settings made for x
  18 settings made for y
  18 settings made for z
change_box all     x final 0 2.5436735101156605 y final 0 8.490099422639693 z final 0 6.312882503987578      xy final 3.8154482092821116 xz final 2.543706531391426 yz final -3.3901511217309026 units box
Changing box ...
  triclinic box = (0 0 0) to (2.5436735 8.4900994 6.3128825) with tilt (3.8154482 2.5437065 -3.3901511)
  triclinic box = (0 0 0) to (2.5436735 8.4900994 6.3128825) with tilt (3.8154482 2.5437065 -3.3901511)
  triclinic box = (0 0 0) to (2.5436735 8.4900994 6.3128825) with tilt (3.8154482 2.5437065 -3.3901511)
  triclinic box = (0 0 0) to (2.5436735 8.4900994 6.3128825) with tilt (3.8154482 2.5437065 -3.3901511)
  triclinic box = (0 0 0) to (2.5436735 8.4900994 6.3128825) with tilt (3.8154482 2.5437065 -3.3901511)
  triclinic box = (0 0 0) to (2.5436735 8.4900994 6.3128825) with tilt (3.8154482 2.5437065 -3.3901511)
echo none
run 0
Per MPI rank memory allocation (min/avg/max) = 4.345 | 4.345 | 4.345 Mbytes
    PotEng          Pxx           E_mol          E_coul    
-77.038044     -1.3666592      0              0            
Loop time of 2.009e-06 on 1 procs for 0 steps with 18 atoms

647.1% CPU use with 1 MPI tasks x 1 OpenMP threads

MPI task timing breakdown:
Section |  min time  |  avg time  |  max time  |%varavg| %total
---------------------------------------------------------------
Pair    | 0          | 0          | 0          |   0.0 |  0.00
Neigh   | 0          | 0          | 0          |   0.0 |  0.00
Comm    | 0          | 0          | 0          |   0.0 |  0.00
Output  | 0          | 0          | 0          |   0.0 |  0.00
Modify  | 0          | 0          | 0          |   0.0 |  0.00
Other   |            | 2.009e-06  |            |       |100.00

Nlocal:             18 ave          18 max          18 min
Histogram: 1 0 0 0 0 0 0 0 0 0
Nghost:           4930 ave        4930 max        4930 min
Histogram: 1 0 0 0 0 0 0 0 0 0
Neighs:              0 ave           0 max           0 min
Histogram: 1 0 0 0 0 0 0 0 0 0
FullNghs:        17940 ave       17940 max       17940 min
Histogram: 1 0 0 0 0 0 0 0 0 0

Total # of neighbors = 17940
Ave neighs/atom = 996.66667
Neighbor list builds = 0
Dangerous builds = 0
set atom * x 0.0 y 0.0 z 0.0
Setting atom values ...
  18 settings made for x
  18 settings made for y
  18 settings made for z
change_box all     x final 0 2.543673183052003 y final 0 8.490080807167413 z final 0 6.312892900824413      xy final 3.8154986782373355 xz final 2.543678753112123 yz final -3.3901373147703393 units box
Changing box ...
  triclinic box = (0 0 0) to (2.5436732 8.4900994 6.3128825) with tilt (3.8154482 2.5437065 -3.3901511)
  triclinic box = (0 0 0) to (2.5436732 8.4900808 6.3128825) with tilt (3.8154482 2.5437065 -3.3901511)
  triclinic box = (0 0 0) to (2.5436732 8.4900808 6.3128929) with tilt (3.8154482 2.5437065 -3.3901511)
  triclinic box = (0 0 0) to (2.5436732 8.4900808 6.3128929) with tilt (3.8154987 2.5437065 -3.3901511)
  triclinic box = (0 0 0) to (2.5436732 8.4900808 6.3128929) with tilt (3.8154987 2.5436788 -3.3901511)
  triclinic box = (0 0 0) to (2.5436732 8.4900808 6.3128929) with tilt (3.8154987 2.5436788 -3.3901373)
echo none
run 0
Per MPI rank memory allocation (min/avg/max) = 4.345 | 4.345 | 4.345 Mbytes
    PotEng          Pxx           E_mol          E_coul    
-77.038044     -0.96421278     0              0            
Loop time of 1.79e-06 on 1 procs for 0 steps with 18 atoms

949.7% CPU use with 1 MPI tasks x 1 OpenMP threads

MPI task timing breakdown:
Section |  min time  |  avg time  |  max time  |%varavg| %total
---------------------------------------------------------------
Pair    | 0          | 0          | 0          |   0.0 |  0.00
Neigh   | 0          | 0          | 0          |   0.0 |  0.00
Comm    | 0          | 0          | 0          |   0.0 |  0.00
Output  | 0          | 0          | 0          |   0.0 |  0.00
Modify  | 0          | 0          | 0          |   0.0 |  0.00
Other   |            | 1.79e-06   |            |       |100.00

Nlocal:             18 ave          18 max          18 min
Histogram: 1 0 0 0 0 0 0 0 0 0
Nghost:           4930 ave        4930 max        4930 min
Histogram: 1 0 0 0 0 0 0 0 0 0
Neighs:              0 ave           0 max           0 min
Histogram: 1 0 0 0 0 0 0 0 0 0
FullNghs:        17940 ave       17940 max       17940 min
Histogram: 1 0 0 0 0 0 0 0 0 0

Total # of neighbors = 17940
Ave neighs/atom = 996.66667
Neighbor list builds = 0
Dangerous builds = 0
Total wall time: 0:01:41
