18
Lattice="2.527079686463199 0.14161310868137836 -0.2568580377752004 -3.2445183655523753 7.252316178204271 -2.7253455719051716 0.9423894071713533 -2.25592548192161 8.027806790452235" Properties=species:S:1:pos:R:3:forces:R:3 energy=-77.04884297432972 stress="1.6396081237183484e-07 -1.9949191828339178e-07 -2.067117163757454e-08 -1.9949191828339178e-07 5.641408101626916e-07 -8.02966062505235e-08 -2.067117163757454e-08 -8.02966062505235e-08 6.231992680792136e-07" free_energy=-77.04884297432972 pbc="T T T"
C       -0.53914295      -0.63942536      -0.34319961       0.00000614      -0.00000987      -0.00002446
H       -0.41774161      -1.38678159       0.43916886       0.00000369      -0.00000343      -0.00001881
H       -0.54587706       0.34064946       0.13086936      -0.00001950       0.00001080       0.00002707
C        0.64642053      -0.72696600      -1.32609290       0.00003014       0.00002265       0.00007038
H        0.65315421      -1.70703847      -1.80016790       0.00001238       0.00001139      -0.00000736
H        0.52502226       0.02039829      -2.10845316      -0.00003952      -0.00003086      -0.00004336
C       -0.15004343       0.32127817       4.01460326      -0.00000551       0.00000796       0.00004048
H       -0.02864197      -0.42607085       4.79697975       0.00001051       0.00000519      -0.00004133
H       -0.15678245       1.30135478       4.48866460       0.00002137       0.00006200       0.00002920
C        1.03552166       0.23372977       3.03171366      -0.00002250      -0.00007970      -0.00004398
H        1.04225868      -0.74634999       2.55765249      -0.00000170       0.00001720      -0.00001466
H        0.91411956       0.98107943       2.24933817      -0.00000233      -0.00001283       0.00002543
C       -0.70333309       3.53789685       0.34460113       0.00000096       0.00000428      -0.00000176
H       -0.58192387       2.79055299       1.12698107      -0.00006289       0.00000370      -0.00001772
H       -0.71007651       4.51798181       0.81866086       0.00005104      -0.00010393      -0.00009997
C        0.48223162       3.45033681      -0.63829133       0.00000113       0.00011518       0.00016836
H        0.48896871       2.47025517      -1.11234387       0.00001401      -0.00003564      -0.00001372
H        0.36082867       4.19768041      -1.42066955       0.00000259       0.00001590      -0.00003379
