18
Lattice="2.3772527807266193 0.4795365235124756 0.7674550158302658 2.4031932105577942 8.983059272239908 -0.4108658905492749 0.7686604772324317 -1.9955767801467068 7.296765295292954" Properties=species:S:1:pos:R:3:forces:R:3 energy=-77.03804443200765 stress="4.701448570869006e-07 2.795613028797392e-07 2.845754579594526e-07 2.795613028797392e-07 -3.948415718194537e-07 -4.797444849142445e-08 2.845754579594526e-07 -4.797444849142445e-08 -5.309128508385594e-07" free_energy=-77.03804443200765 pbc="T T T"
C       -0.08283605      -0.56610508      -0.72163211      -0.00002783       0.00000736       0.00001507
H       -0.40861785       0.38691357      -0.30797719      -0.00001424       0.00001182      -0.00000411
H        0.21631836      -0.39601254      -1.75457263       0.00002804       0.00001295      -0.00004372
C        1.12406504      -1.09046001       0.08294111      -0.00000017      -0.00003723       0.00005466
H        0.82534998      -1.26228234       1.11559168       0.00001125       0.00001354       0.00000116
H        1.44995275      -2.04269461      -0.33152524       0.00000547      -0.00001215      -0.00002925
C        0.90924240       0.38964639       4.03890972       0.00002365      -0.00001221       0.00000802
H        1.23502507      -0.56337326       3.62525680       0.00000349       0.00000032      -0.00000324
H        0.61008573       0.21955438       5.07185123      -0.00000014       0.00000082       0.00000855
C        2.07959448       1.39353849       4.00179056      -0.00001190      -0.00004824       0.00000611
H        2.37830783       1.56535893       2.96914043       0.00000871       0.00001151      -0.00002237
H        1.75370801       2.34577097       4.41625978      -0.00002279       0.00005030       0.00000974
C        0.86667350       4.44811244       1.63491921       0.00004966       0.00004081      -0.00005723
H        0.68224078       3.89294263       2.55311155      -0.00001769       0.00001389      -0.00000475
H        0.59868331       5.48784945       1.81537130       0.00000805      -0.00007007       0.00000996
C        2.36294855       4.35848561       1.27150182      -0.00001689       0.00005415       0.00000660
H        2.63094142       3.31875294       1.09104621      -0.00002111      -0.00002456       0.00000557
H        2.54738224       4.91365631       0.35330866      -0.00000559      -0.00001302       0.00003924
